 Entering Gaussian System, Link 0=C:\G09W\g09.exe
 Input=C:\Users\123\Downloads\leemol\christy\mo440.gjf
 Output=C:\Users\123\Downloads\leemol\christy\mo440.log
 Initial command:
 C:/G09W\l1.exe ".\Gau-4988.inp" "C:\Users\123\Downloads\leemol\christy\mo440.log" /scrdir=".\"
 Entering Link 1 = C:/G09W\l1.exe PID=      4136.
  
 Copyright (c) 1988,1990,1992,1993,1995,1998,2003,2009,2013,
            Gaussian, Inc.  All Rights Reserved.
  
 This is part of the Gaussian(R) 09 program.  It is based on
 the Gaussian(R) 03 system (copyright 2003, Gaussian, Inc.),
 the Gaussian(R) 98 system (copyright 1998, Gaussian, Inc.),
 the Gaussian(R) 94 system (copyright 1995, Gaussian, Inc.),
 the Gaussian 92(TM) system (copyright 1992, Gaussian, Inc.),
 the Gaussian 90(TM) system (copyright 1990, Gaussian, Inc.),
 the Gaussian 88(TM) system (copyright 1988, Gaussian, Inc.),
 the Gaussian 86(TM) system (copyright 1986, Carnegie Mellon
 University), and the Gaussian 82(TM) system (copyright 1983,
 Carnegie Mellon University). Gaussian is a federally registered
 trademark of Gaussian, Inc.
  
 This software contains proprietary and confidential information,
 including trade secrets, belonging to Gaussian, Inc.
  
 This software is provided under written license and may be
 used, copied, transmitted, or stored only in accord with that
 written license.
  
 The following legend is applicable only to US Government
 contracts under FAR:
  
                    RESTRICTED RIGHTS LEGEND
  
 Use, reproduction and disclosure by the US Government is
 subject to restrictions as set forth in subparagraphs (a)
 and (c) of the Commercial Computer Software - Restricted
 Rights clause in FAR 52.227-19.
  
 Gaussian, Inc.
 340 Quinnipiac St., Bldg. 40, Wallingford CT 06492
  
  
 ---------------------------------------------------------------
 Warning -- This program may not be used in any manner that
 competes with the business of Gaussian, Inc. or will provide
 assistance to any competitor of Gaussian, Inc.  The licensee
 of this program is prohibited from giving any competitor of
 Gaussian, Inc. access to this program.  By using this program,
 the user acknowledges that Gaussian, Inc. is engaged in the
 business of creating and licensing software in the field of
 computational chemistry and represents and warrants to the
 licensee that it is not a competitor of Gaussian, Inc. and that
 it will not use this program in any manner prohibited above.
 ---------------------------------------------------------------
  

 Cite this work as:
 Gaussian 09, Revision D.01,
 M. J. Frisch, G. W. Trucks, H. B. Schlegel, G. E. Scuseria, 
 M. A. Robb, J. R. Cheeseman, G. Scalmani, V. Barone, B. Mennucci, 
 G. A. Petersson, H. Nakatsuji, M. Caricato, X. Li, H. P. Hratchian, 
 A. F. Izmaylov, J. Bloino, G. Zheng, J. L. Sonnenberg, M. Hada, 
 M. Ehara, K. Toyota, R. Fukuda, J. Hasegawa, M. Ishida, T. Nakajima, 
 Y. Honda, O. Kitao, H. Nakai, T. Vreven, J. A. Montgomery, Jr., 
 J. E. Peralta, F. Ogliaro, M. Bearpark, J. J. Heyd, E. Brothers, 
 K. N. Kudin, V. N. Staroverov, T. Keith, R. Kobayashi, J. Normand, 
 K. Raghavachari, A. Rendell, J. C. Burant, S. S. Iyengar, J. Tomasi, 
 M. Cossi, N. Rega, J. M. Millam, M. Klene, J. E. Knox, J. B. Cross, 
 V. Bakken, C. Adamo, J. Jaramillo, R. Gomperts, R. E. Stratmann, 
 O. Yazyev, A. J. Austin, R. Cammi, C. Pomelli, J. W. Ochterski, 
 R. L. Martin, K. Morokuma, V. G. Zakrzewski, G. A. Voth, 
 P. Salvador, J. J. Dannenberg, S. Dapprich, A. D. Daniels, 
 O. Farkas, J. B. Foresman, J. V. Ortiz, J. Cioslowski, 
 and D. J. Fox, Gaussian, Inc., Wallingford CT, 2013.
 
 ******************************************
 Gaussian 09:  EM64W-G09RevD.01 13-Apr-2013
                25-Feb-2025 
 ******************************************
 %chk=C:\Users\123\Downloads\leemol\christy\mo440.chk
 -----------------------------------
 # opt b3lyp/6-31g geom=connectivity
 -----------------------------------
 1/14=-1,18=20,19=15,26=3,38=1,57=2/1,3;
 2/9=110,12=2,17=6,18=5,40=1/2;
 3/5=1,6=6,11=2,16=1,25=1,30=1,71=1,74=-5/1,2,3;
 4//1;
 5/5=2,38=5/2;
 6/7=2,8=2,9=2,10=2,28=1/1;
 7//1,2,3,16;
 1/14=-1,18=20,19=15,26=3/3(2);
 2/9=110/2;
 99//99;
 2/9=110/2;
 3/5=1,6=6,11=2,16=1,25=1,30=1,71=1,74=-5/1,2,3;
 4/5=5,16=3,69=1/1;
 5/5=2,38=5/2;
 7//1,2,3,16;
 1/14=-1,18=20,19=15,26=3/3(-5);
 2/9=110/2;
 6/7=2,8=2,9=2,10=2,19=2,28=1/1;
 99/9=1/99;
 -------------------
 Title Card Required
 -------------------
 Symbolic Z-matrix:
 Charge =  0 Multiplicity = 1
 C                    -1.39986  -0.10539  -0.24823 
 C                    -2.54402   0.64187  -0.12194 
 C                    -2.49628   2.18897   0.15165 
 C                    -1.3079    2.86265   0.27357 
 C                    -0.02561   2.05311   0.13015 
 C                    -0.06568   0.61977  -0.1166 
 H                    -1.44283  -1.15863  -0.43194 
 H                    -3.49423   0.15818  -0.21172 
 H                    -1.2825    3.91568   0.46168 
 C                    -3.81773   2.96823   0.28623 
 H                    -3.67398   3.97455  -0.04777 
 H                    -4.57122   2.49846  -0.31084 
 H                    -4.12616   2.97311   1.3108 
 N                     1.20021   2.381     0.1937 
 N                     1.14381   0.19056  -0.17544 
 O                     2.0128    1.29631  -0.14747 
 O                     1.65701   3.61175   0.54894 
 

 GradGradGradGradGradGradGradGradGradGradGradGradGradGradGradGradGradGrad
 Berny optimization.
 Initialization pass.
                           ----------------------------
                           !    Initial Parameters    !
                           ! (Angstroms and Degrees)  !
 --------------------------                            --------------------------
 ! Name  Definition              Value          Derivative Info.                !
 --------------------------------------------------------------------------------
 ! R1    R(1,2)                  1.3724         estimate D2E/DX2                !
 ! R2    R(1,6)                  1.5242         estimate D2E/DX2                !
 ! R3    R(1,7)                  1.07           estimate D2E/DX2                !
 ! R4    R(2,3)                  1.5718         estimate D2E/DX2                !
 ! R5    R(2,8)                  1.07           estimate D2E/DX2                !
 ! R6    R(3,4)                  1.3715         estimate D2E/DX2                !
 ! R7    R(3,10)                 1.54           estimate D2E/DX2                !
 ! R8    R(4,5)                  1.5232         estimate D2E/DX2                !
 ! R9    R(4,9)                  1.07           estimate D2E/DX2                !
 ! R10   R(5,6)                  1.455          estimate D2E/DX2                !
 ! R11   R(5,14)                 1.2705         estimate D2E/DX2                !
 ! R12   R(6,15)                 1.2847         estimate D2E/DX2                !
 ! R13   R(10,11)                1.07           estimate D2E/DX2                !
 ! R14   R(10,12)                1.07           estimate D2E/DX2                !
 ! R15   R(10,13)                1.07           estimate D2E/DX2                !
 ! R16   R(14,16)                1.3976         estimate D2E/DX2                !
 ! R17   R(14,17)                1.36           estimate D2E/DX2                !
 ! R18   R(15,16)                1.4066         estimate D2E/DX2                !
 ! A1    A(2,1,6)              117.5652         estimate D2E/DX2                !
 ! A2    A(2,1,7)              121.2174         estimate D2E/DX2                !
 ! A3    A(6,1,7)              121.2174         estimate D2E/DX2                !
 ! A4    A(1,2,3)              121.7777         estimate D2E/DX2                !
 ! A5    A(1,2,8)              119.1111         estimate D2E/DX2                !
 ! A6    A(3,2,8)              119.1111         estimate D2E/DX2                !
 ! A7    A(2,3,4)              121.6863         estimate D2E/DX2                !
 ! A8    A(2,3,10)             119.1568         estimate D2E/DX2                !
 ! A9    A(4,3,10)             119.1568         estimate D2E/DX2                !
 ! A10   A(3,4,5)              117.388          estimate D2E/DX2                !
 ! A11   A(3,4,9)              121.306          estimate D2E/DX2                !
 ! A12   A(5,4,9)              121.306          estimate D2E/DX2                !
 ! A13   A(4,5,6)              121.0875         estimate D2E/DX2                !
 ! A14   A(4,5,14)             132.0946         estimate D2E/DX2                !
 ! A15   A(6,5,14)             106.8155         estimate D2E/DX2                !
 ! A16   A(1,6,5)              120.4936         estimate D2E/DX2                !
 ! A17   A(1,6,15)             131.3879         estimate D2E/DX2                !
 ! A18   A(5,6,15)             108.117          estimate D2E/DX2                !
 ! A19   A(3,10,11)            109.4712         estimate D2E/DX2                !
 ! A20   A(3,10,12)            109.4712         estimate D2E/DX2                !
 ! A21   A(3,10,13)            109.4712         estimate D2E/DX2                !
 ! A22   A(11,10,12)           109.4712         estimate D2E/DX2                !
 ! A23   A(11,10,13)           109.4712         estimate D2E/DX2                !
 ! A24   A(12,10,13)           109.4712         estimate D2E/DX2                !
 ! A25   A(5,14,16)            110.3939         estimate D2E/DX2                !
 ! A26   A(5,14,17)            124.7978         estimate D2E/DX2                !
 ! A27   A(16,14,17)           124.8078         estimate D2E/DX2                !
 ! A28   A(6,15,16)            108.5458         estimate D2E/DX2                !
 ! A29   A(14,16,15)           104.8188         estimate D2E/DX2                !
 ! D1    D(6,1,2,3)             -0.1327         estimate D2E/DX2                !
 ! D2    D(6,1,2,8)            179.8943         estimate D2E/DX2                !
 ! D3    D(7,1,2,3)            179.8397         estimate D2E/DX2                !
 ! D4    D(7,1,2,8)             -0.1333         estimate D2E/DX2                !
 ! D5    D(2,1,6,5)             -0.171          estimate D2E/DX2                !
 ! D6    D(2,1,6,15)           179.3178         estimate D2E/DX2                !
 ! D7    D(7,1,6,5)            179.8566         estimate D2E/DX2                !
 ! D8    D(7,1,6,15)            -0.6546         estimate D2E/DX2                !
 ! D9    D(1,2,3,4)              0.1482         estimate D2E/DX2                !
 ! D10   D(1,2,3,10)          -179.8522         estimate D2E/DX2                !
 ! D11   D(8,2,3,4)           -179.8788         estimate D2E/DX2                !
 ! D12   D(8,2,3,10)             0.1208         estimate D2E/DX2                !
 ! D13   D(2,3,4,5)              0.1411         estimate D2E/DX2                !
 ! D14   D(2,3,4,9)           -179.8822         estimate D2E/DX2                !
 ! D15   D(10,3,4,5)          -179.8584         estimate D2E/DX2                !
 ! D16   D(10,3,4,9)             0.1182         estimate D2E/DX2                !
 ! D17   D(2,3,10,11)         -149.9998         estimate D2E/DX2                !
 ! D18   D(2,3,10,12)          -29.9998         estimate D2E/DX2                !
 ! D19   D(2,3,10,13)           90.0002         estimate D2E/DX2                !
 ! D20   D(4,3,10,11)           29.9998         estimate D2E/DX2                !
 ! D21   D(4,3,10,12)          149.9998         estimate D2E/DX2                !
 ! D22   D(4,3,10,13)          -90.0002         estimate D2E/DX2                !
 ! D23   D(3,4,5,6)             -0.4445         estimate D2E/DX2                !
 ! D24   D(3,4,5,14)          -179.7925         estimate D2E/DX2                !
 ! D25   D(9,4,5,6)            179.5788         estimate D2E/DX2                !
 ! D26   D(9,4,5,14)             0.2308         estimate D2E/DX2                !
 ! D27   D(4,5,6,1)              0.4681         estimate D2E/DX2                !
 ! D28   D(4,5,6,15)          -179.1284         estimate D2E/DX2                !
 ! D29   D(14,5,6,1)           179.9627         estimate D2E/DX2                !
 ! D30   D(14,5,6,15)            0.3662         estimate D2E/DX2                !
 ! D31   D(4,5,14,16)         -173.6978         estimate D2E/DX2                !
 ! D32   D(4,5,14,17)            6.5594         estimate D2E/DX2                !
 ! D33   D(6,5,14,16)            6.8855         estimate D2E/DX2                !
 ! D34   D(6,5,14,17)         -172.8573         estimate D2E/DX2                !
 ! D35   D(1,6,15,16)          173.1309         estimate D2E/DX2                !
 ! D36   D(5,6,15,16)           -7.3325         estimate D2E/DX2                !
 ! D37   D(5,14,16,15)         -11.1478         estimate D2E/DX2                !
 ! D38   D(17,14,16,15)        168.595          estimate D2E/DX2                !
 ! D39   D(6,15,16,14)          11.1654         estimate D2E/DX2                !
 --------------------------------------------------------------------------------
 Trust Radius=3.00D-01 FncErr=1.00D-07 GrdErr=1.00D-06
 Number of steps in this run=     96 maximum allowed number of steps=    102.
 GradGradGradGradGradGradGradGradGradGradGradGradGradGradGradGradGradGrad

                          Input orientation:                          
 ---------------------------------------------------------------------
 Center     Atomic      Atomic             Coordinates (Angstroms)
 Number     Number       Type             X           Y           Z
 ---------------------------------------------------------------------
      1          6           0       -1.399858   -0.105394   -0.248235
      2          6           0       -2.544021    0.641869   -0.121941
      3          6           0       -2.496280    2.188965    0.151648
      4          6           0       -1.307895    2.862646    0.273569
      5          6           0       -0.025612    2.053115    0.130150
      6          6           0       -0.065683    0.619770   -0.116598
      7          1           0       -1.442825   -1.158629   -0.431941
      8          1           0       -3.494226    0.158185   -0.211717
      9          1           0       -1.282500    3.915675    0.461678
     10          6           0       -3.817733    2.968228    0.286229
     11          1           0       -3.673975    3.974546   -0.047771
     12          1           0       -4.571215    2.498462   -0.310835
     13          1           0       -4.126162    2.973110    1.310801
     14          7           0        1.200206    2.380999    0.193697
     15          7           0        1.143806    0.190557   -0.175438
     16          8           0        2.012799    1.296311   -0.147468
     17          8           0        1.657006    3.611745    0.548938
 ---------------------------------------------------------------------
                    Distance matrix (angstroms):
                    1          2          3          4          5
     1  C    0.000000
     2  C    1.372392   0.000000
     3  C    2.574127   1.571826   0.000000
     4  C    3.014962   2.572214   1.371485   0.000000
     5  C    2.586674   2.897852   2.474494   1.523207   0.000000
     6  C    1.524209   2.478443   2.905535   2.593418   1.454980
     7  H    1.070000   2.133196   3.557630   4.084924   3.555241
     8  H    2.111205   1.070000   2.291724   3.511361   3.967230
     9  H    4.084941   3.556663   2.133286   1.070000   2.271301
    10  C    3.947014   2.683448   1.540000   2.512090   3.904097
    11  H    4.675222   3.519807   2.148263   2.633993   4.127240
    12  H    4.103838   2.755383   2.148263   3.335179   4.588607
    13  H    4.397785   3.160792   2.148263   3.005109   4.365185
    14  N    3.624608   4.140463   3.701710   2.555178   1.270502
    15  N    2.561857   3.715725   4.165435   3.654108   2.220370
    16  O    3.690685   4.603645   4.606310   3.695630   2.192018
    17  O    4.878219   5.188340   4.408166   3.070442   2.331505
                    6          7          8          9         10
     6  C    0.000000
     7  H    2.271270   0.000000
     8  H    3.460783   2.447600   0.000000
     9  H    3.560623   5.154884   4.411794   0.000000
    10  C    4.444706   4.815278   2.872098   2.712167   0.000000
    11  H    4.927376   5.610268   3.824108   2.445845   1.070000
    12  H    4.885390   4.814126   2.578105   3.663457   1.070000
    13  H    4.905422   5.225774   3.262086   3.113817   1.070000
    14  N    2.191046   4.461614   5.209890   2.931019   5.053030
    15  N    1.284736   2.928610   4.638287   4.491033   5.704863
    16  O    2.186034   4.248411   5.623769   4.253365   6.080995
    17  O    3.516036   5.773002   6.248269   2.956464   5.518687
                   11         12         13         14         15
    11  H    0.000000
    12  H    1.747303   0.000000
    13  H    1.747303   1.747303   0.000000
    14  N    5.133745   5.794622   5.474369   0.000000
    15  N    6.127470   6.164919   6.141992   2.222043   0.000000
    16  O    6.286675   6.694856   6.528785   1.397586   1.406635
    17  O    5.376527   6.385088   5.867991   1.360000   3.534491
                   16         17
    16  O    0.000000
    17  O    2.443932   0.000000
 Stoichiometry    C7H6N2O2
 Framework group  C1[X(C7H6N2O2)]
 Deg. of freedom    45
 Full point group                 C1      NOp   1
 Largest Abelian subgroup         C1      NOp   1
 Largest concise Abelian subgroup C1      NOp   1
                         Standard orientation:                         
 ---------------------------------------------------------------------
 Center     Atomic      Atomic             Coordinates (Angstroms)
 Number     Number       Type             X           Y           Z
 ---------------------------------------------------------------------
      1          6           0        0.745537    1.934459    0.036537
      2          6           0        1.929923    1.241380    0.018291
      3          6           0        1.969281   -0.329691   -0.010452
      4          6           0        0.820642   -1.079006   -0.021613
      5          6           0       -0.505212   -0.329275   -0.008374
      6          6           0       -0.545766    1.124760    0.024850
      7          1           0        0.729217    3.004107    0.058618
      8          1           0        2.851421    1.785167    0.024221
      9          1           0        0.854537   -2.148323   -0.039312
     10          6           0        3.332509   -1.045898   -0.026503
     11          1           0        3.240724   -1.975828   -0.547755
     12          1           0        4.053537   -0.429315   -0.521320
     13          1           0        3.650442   -1.230174    0.978415
     14          7           0       -1.710651   -0.730632   -0.010444
     15          7           0       -1.777379    1.489637    0.048123
     16          8           0       -2.584427    0.352663   -0.137859
     17          8           0       -2.096215   -2.030043    0.101229
 ---------------------------------------------------------------------
 Rotational constants (GHZ):      2.1122374      0.9041329      0.6364613
 Standard basis: 6-31G (6D, 7F)
 There are   111 symmetry adapted cartesian basis functions of A   symmetry.
 There are   111 symmetry adapted basis functions of A   symmetry.
   111 basis functions,   266 primitive gaussians,   111 cartesian basis functions
    39 alpha electrons       39 beta electrons
       nuclear repulsion energy       572.0083457134 Hartrees.
 NAtoms=   17 NActive=   17 NUniq=   17 SFac= 1.00D+00 NAtFMM=   60 NAOKFM=F Big=F
 Integral buffers will be    131072 words long.
 Raffenetti 2 integral format.
 Two-electron integral symmetry is turned on.
 One-electron integrals computed using PRISM.
 NBasis=   111 RedAO= T EigKep=  7.97D-04  NBF=   111
 NBsUse=   111 1.00D-06 EigRej= -1.00D+00 NBFU=   111
 ExpMin= 1.61D-01 ExpMax= 5.48D+03 ExpMxC= 8.25D+02 IAcc=1 IRadAn=         1 AccDes= 0.00D+00
 Harris functional with IExCor=  402 and IRadAn=       1 diagonalized for initial guess.
 HarFok:  IExCor=  402 AccDes= 0.00D+00 IRadAn=         1 IDoV= 1 UseB2=F ITyADJ=14
 ICtDFT=  3500011 ScaDFX=  1.000000  1.000000  1.000000  1.000000
 FoFCou: FMM=F IPFlag=           0 FMFlag=      100000 FMFlg1=           0
         NFxFlg=           0 DoJE=T BraDBF=F KetDBF=T FulRan=T
         wScrn=  0.000000 ICntrl=     500 IOpCl=  0 I1Cent=   200000004 NGrid=           0
         NMat0=    1 NMatS0=      1 NMatT0=    0 NMatD0=    1 NMtDS0=    0 NMtDT0=    0
 Petite list used in FoFCou.
 Keep R1 ints in memory in canonical form, NReq=20311515.
 Requested convergence on RMS density matrix=1.00D-08 within 128 cycles.
 Requested convergence on MAX density matrix=1.00D-06.
 Requested convergence on             energy=1.00D-06.
 No special actions if energy rises.
 Integral accuracy reduced to 1.0D-05 until final iterations.
 EnCoef did     4 forward-backward iterations
 Initial convergence to 1.0D-05 achieved.  Increase integral accuracy.
 SCF Done:  E(RB3LYP) =  -529.938520384     A.U. after   18 cycles
            NFock= 18  Conv=0.70D-08     -V/T= 2.0055

 **********************************************************************

            Population analysis using the SCF density.

 **********************************************************************

 Orbital symmetries:
       Occupied  (A) (A) (A) (A) (A) (A) (A) (A) (A) (A) (A) (A)
                 (A) (A) (A) (A) (A) (A) (A) (A) (A) (A) (A) (A)
                 (A) (A) (A) (A) (A) (A) (A) (A) (A) (A) (A) (A)
                 (A) (A) (A)
       Virtual   (A) (A) (A) (A) (A) (A) (A) (A) (A) (A) (A) (A)
                 (A) (A) (A) (A) (A) (A) (A) (A) (A) (A) (A) (A)
                 (A) (A) (A) (A) (A) (A) (A) (A) (A) (A) (A) (A)
                 (A) (A) (A) (A) (A) (A) (A) (A) (A) (A) (A) (A)
                 (A) (A) (A) (A) (A) (A) (A) (A) (A) (A) (A) (A)
                 (A) (A) (A) (A) (A) (A) (A) (A) (A) (A) (A) (A)
 The electronic state is 1-A.
 Alpha  occ. eigenvalues --  -19.29210 -19.15580 -14.52478 -14.42150 -10.27802
 Alpha  occ. eigenvalues --  -10.27701 -10.24968 -10.24470 -10.24339 -10.23626
 Alpha  occ. eigenvalues --  -10.20123  -1.24339  -1.06609  -0.94505  -0.90168
 Alpha  occ. eigenvalues --   -0.85195  -0.79548  -0.73924  -0.69013  -0.65486
 Alpha  occ. eigenvalues --   -0.62463  -0.56194  -0.54669  -0.53796  -0.49771
 Alpha  occ. eigenvalues --   -0.48093  -0.46478  -0.45377  -0.45024  -0.42319
 Alpha  occ. eigenvalues --   -0.40938  -0.40375  -0.38542  -0.37968  -0.34242
 Alpha  occ. eigenvalues --   -0.31054  -0.29004  -0.27086  -0.23387
 Alpha virt. eigenvalues --   -0.09943  -0.01962  -0.01201   0.02648   0.05994
 Alpha virt. eigenvalues --    0.08383   0.10349   0.10921   0.12351   0.12928
 Alpha virt. eigenvalues --    0.14354   0.15711   0.17063   0.19586   0.21723
 Alpha virt. eigenvalues --    0.25532   0.27654   0.29887   0.34367   0.35439
 Alpha virt. eigenvalues --    0.40990   0.45763   0.47901   0.51666   0.52959
 Alpha virt. eigenvalues --    0.53331   0.54576   0.56235   0.57998   0.59754
 Alpha virt. eigenvalues --    0.61060   0.61862   0.63337   0.65563   0.66354
 Alpha virt. eigenvalues --    0.71951   0.72230   0.73039   0.73805   0.74950
 Alpha virt. eigenvalues --    0.75145   0.79851   0.82166   0.82465   0.86322
 Alpha virt. eigenvalues --    0.88056   0.88955   0.92247   0.93557   0.94637
 Alpha virt. eigenvalues --    0.95358   0.96400   0.97409   0.99349   1.02137
 Alpha virt. eigenvalues --    1.02638   1.04231   1.08637   1.10104   1.13762
 Alpha virt. eigenvalues --    1.18210   1.18788   1.29132   1.33673   1.37632
 Alpha virt. eigenvalues --    1.39854   1.48821   1.54755   1.64495   1.76452
 Alpha virt. eigenvalues --    1.88095   1.94709
          Condensed to atoms (all electrons):
               1          2          3          4          5          6
     1  C    4.911144   0.543973  -0.038076  -0.026935  -0.038590   0.394176
     2  C    0.543973   4.988492   0.413320  -0.042029  -0.027893  -0.026330
     3  C   -0.038076   0.413320   4.916012   0.500022   0.000815  -0.018858
     4  C   -0.026935  -0.042029   0.500022   5.050101   0.317389  -0.021855
     5  C   -0.038590  -0.027893   0.000815   0.317389   5.581849   0.206188
     6  C    0.394176  -0.026330  -0.018858  -0.021855   0.206188   5.175516
     7  H    0.356976  -0.037190   0.003196   0.000014   0.003766  -0.029833
     8  H   -0.034172   0.358378  -0.031546   0.003117   0.000509   0.003330
     9  H    0.000211   0.003296  -0.040138   0.359764  -0.027950   0.003164
    10  C    0.003915  -0.037448   0.317445  -0.045788   0.004264   0.000565
    11  H   -0.000149   0.002617  -0.036483  -0.002382   0.000383   0.000002
    12  H    0.000262  -0.002819  -0.033857   0.003007  -0.000218   0.000003
    13  H   -0.000077   0.000317  -0.032730  -0.004365  -0.000130  -0.000009
    14  N    0.008024   0.000032   0.007397  -0.054240  -0.186798   0.053923
    15  N   -0.048921   0.004733  -0.000972   0.011837  -0.001439   0.217362
    16  O    0.004396  -0.000084  -0.000032   0.004988  -0.153470  -0.078097
    17  O    0.000002  -0.000003   0.000640   0.006341  -0.105040   0.006169
               7          8          9         10         11         12
     1  C    0.356976  -0.034172   0.000211   0.003915  -0.000149   0.000262
     2  C   -0.037190   0.358378   0.003296  -0.037448   0.002617  -0.002819
     3  C    0.003196  -0.031546  -0.040138   0.317445  -0.036483  -0.033857
     4  C    0.000014   0.003117   0.359764  -0.045788  -0.002382   0.003007
     5  C    0.003766   0.000509  -0.027950   0.004264   0.000383  -0.000218
     6  C   -0.029833   0.003330   0.003164   0.000565   0.000002   0.000003
     7  H    0.538480  -0.003395   0.000009  -0.000095   0.000001  -0.000001
     8  H   -0.003395   0.556429  -0.000099  -0.002963   0.000010   0.002740
     9  H    0.000009  -0.000099   0.526090  -0.005265   0.003142   0.000124
    10  C   -0.000095  -0.002963  -0.005265   5.124331   0.377533   0.369819
    11  H    0.000001   0.000010   0.003142   0.377533   0.542652  -0.027805
    12  H   -0.000001   0.002740   0.000124   0.369819  -0.027805   0.562105
    13  H    0.000002   0.000200   0.000482   0.372460  -0.026617  -0.029882
    14  N   -0.000046  -0.000001  -0.004194  -0.000116   0.000002   0.000001
    15  N   -0.001739  -0.000081  -0.000119  -0.000002   0.000000   0.000000
    16  O   -0.000094   0.000001   0.000044   0.000000   0.000000   0.000000
    17  O    0.000000   0.000000   0.005009  -0.000002   0.000000   0.000000
              13         14         15         16         17
     1  C   -0.000077   0.008024  -0.048921   0.004396   0.000002
     2  C    0.000317   0.000032   0.004733  -0.000084  -0.000003
     3  C   -0.032730   0.007397  -0.000972  -0.000032   0.000640
     4  C   -0.004365  -0.054240   0.011837   0.004988   0.006341
     5  C   -0.000130  -0.186798  -0.001439  -0.153470  -0.105040
     6  C   -0.000009   0.053923   0.217362  -0.078097   0.006169
     7  H    0.000002  -0.000046  -0.001739  -0.000094   0.000000
     8  H    0.000200  -0.000001  -0.000081   0.000001   0.000000
     9  H    0.000482  -0.004194  -0.000119   0.000044   0.005009
    10  C    0.372460  -0.000116  -0.000002   0.000000  -0.000002
    11  H   -0.026617   0.000002   0.000000   0.000000   0.000000
    12  H   -0.029882   0.000001   0.000000   0.000000   0.000000
    13  H    0.544097   0.000002   0.000000   0.000000   0.000000
    14  N    0.000002   7.410112  -0.125497  -0.080735   0.156098
    15  N    0.000000  -0.125497   7.031317   0.093175   0.002615
    16  O    0.000000  -0.080735   0.093175   8.430498  -0.039000
    17  O    0.000000   0.156098   0.002615  -0.039000   8.312764
 Mulliken charges:
               1
     1  C   -0.036160
     2  C   -0.141363
     3  C    0.073845
     4  C   -0.058987
     5  C    0.426366
     6  C    0.114584
     7  H    0.169949
     8  H    0.147543
     9  H    0.176430
    10  C   -0.478654
    11  H    0.167093
    12  H    0.156520
    13  H    0.176249
    14  N   -0.183965
    15  N   -0.182268
    16  O   -0.181589
    17  O   -0.345593
 Sum of Mulliken charges =   0.00000
 Mulliken charges with hydrogens summed into heavy atoms:
               1
     1  C    0.133789
     2  C    0.006180
     3  C    0.073845
     4  C    0.117443
     5  C    0.426366
     6  C    0.114584
    10  C    0.021208
    14  N   -0.183965
    15  N   -0.182268
    16  O   -0.181589
    17  O   -0.345593
 Electronic spatial extent (au):  <R**2>=           1698.8885
 Charge=              0.0000 electrons
 Dipole moment (field-independent basis, Debye):
    X=              6.4874    Y=              1.6226    Z=             -0.0945  Tot=              6.6879
 Quadrupole moment (field-independent basis, Debye-Ang):
   XX=            -65.5918   YY=            -64.5471   ZZ=            -63.6523
   XY=             -2.4983   XZ=              0.3932   YZ=              0.4210
 Traceless Quadrupole moment (field-independent basis, Debye-Ang):
   XX=             -0.9947   YY=              0.0500   ZZ=              0.9448
   XY=             -2.4983   XZ=              0.3932   YZ=              0.4210
 Octapole moment (field-independent basis, Debye-Ang**2):
  XXX=             37.5501  YYY=              7.9229  ZZZ=              0.3002  XYY=             26.5640
  XXY=              3.1938  XXZ=             -0.1833  XZZ=             -8.5183  YZZ=             -3.9794
  YYZ=             -1.0564  XYZ=             -0.6359
 Hexadecapole moment (field-independent basis, Debye-Ang**3):
 XXXX=          -1448.1525 YYYY=           -639.1194 ZZZZ=            -67.0862 XXXY=              1.3488
 XXXZ=              1.5564 YYYX=              2.9275 YYYZ=              2.7744 ZZZX=              2.8608
 ZZZY=             -1.7092 XXYY=           -381.4936 XXZZ=           -252.8948 YYZZ=           -125.8997
 XXYZ=             -0.7049 YYXZ=              1.4114 ZZXY=             -0.2845
 N-N= 5.720083457134D+02 E-N=-2.379471199470D+03  KE= 5.270434218476D+02
 Calling FoFJK, ICntrl=      2127 FMM=F ISym2X=0 I1Cent= 0 IOpClX= 0 NMat=1 NMatS=1 NMatT=0.
 ***** Axes restored to original set *****
 -------------------------------------------------------------------
 Center     Atomic                   Forces (Hartrees/Bohr)
 Number     Number              X              Y              Z
 -------------------------------------------------------------------
      1        6           0.025431769    0.038861375    0.010311119
      2        6           0.033053835    0.048188821    0.009795951
      3        6          -0.004905646   -0.033325326   -0.006712691
      4        6           0.036618587   -0.047481456   -0.006491601
      5        6          -0.125469646   -0.011911088   -0.003287650
      6        6          -0.074255464    0.017121676    0.003930763
      7        1           0.004769697   -0.009048103   -0.001936123
      8        1          -0.011308156   -0.000578118   -0.000706262
      9        1           0.005802965    0.008574177    0.001034584
     10        6           0.029110781   -0.022791310   -0.006420736
     11        1          -0.000118298    0.015763821   -0.003838360
     12        1          -0.014411077   -0.004898392   -0.008070487
     13        1          -0.008243776    0.000906516    0.016692671
     14        7           0.044928330    0.129165857    0.027489154
     15        7           0.037849146   -0.062936338   -0.025496885
     16        8           0.022436402   -0.014846320    0.013007136
     17        8          -0.001289450   -0.050765792   -0.019300583
 -------------------------------------------------------------------
 Cartesian Forces:  Max     0.129165857 RMS     0.035511924

 GradGradGradGradGradGradGradGradGradGradGradGradGradGradGradGradGradGrad
 Berny optimization.
 FormGI is forming the generalized inverse of G from B-inverse, IUseBI=4.
 Internal  Forces:  Max     0.070066578 RMS     0.017728264
 Search for a local minimum.
 Step number   1 out of a maximum of   96
 All quantities printed in internal units (Hartrees-Bohrs-Radians)
 Mixed Optimization -- RFO/linear search
 Second derivative matrix not updated -- first step.
 ITU=  0
     Eigenvalues ---    0.00237   0.00737   0.00828   0.01057   0.01336
     Eigenvalues ---    0.01415   0.01456   0.01543   0.01872   0.01984
     Eigenvalues ---    0.02378   0.02781   0.07243   0.07243   0.16000
     Eigenvalues ---    0.16000   0.16000   0.16000   0.16000   0.16000
     Eigenvalues ---    0.22370   0.23510   0.24624   0.24899   0.24940
     Eigenvalues ---    0.25000   0.25000   0.25788   0.28519   0.29403
     Eigenvalues ---    0.29791   0.34785   0.37230   0.37230   0.37230
     Eigenvalues ---    0.37230   0.37230   0.37230   0.42771   0.44008
     Eigenvalues ---    0.48549   0.49818   0.52948   0.66264   0.73764
 RFO step:  Lambda=-6.28858864D-02 EMin= 2.36824129D-03
 Linear search not attempted -- first point.
 Maximum step size (   0.300) exceeded in Quadratic search.
    -- Step size scaled by   0.780
 Iteration  1 RMS(Cart)=  0.04225763 RMS(Int)=  0.00118545
 Iteration  2 RMS(Cart)=  0.00108704 RMS(Int)=  0.00046988
 Iteration  3 RMS(Cart)=  0.00000175 RMS(Int)=  0.00046988
 Iteration  4 RMS(Cart)=  0.00000000 RMS(Int)=  0.00046988
 Variable       Old X    -DE/DX   Delta X   Delta X   Delta X     New X
                                 (Linear)    (Quad)   (Total)
    R1        2.59345  -0.01607   0.00000  -0.02244  -0.02228   2.57117
    R2        2.88034  -0.05218   0.00000  -0.11241  -0.11240   2.76794
    R3        2.02201   0.00905   0.00000   0.01621   0.01621   2.03822
    R4        2.97032  -0.05430   0.00000  -0.13212  -0.13197   2.83835
    R5        2.02201   0.01036   0.00000   0.01857   0.01857   2.04057
    R6        2.59173  -0.01113   0.00000  -0.01513  -0.01514   2.57659
    R7        2.91018  -0.01116   0.00000  -0.02500  -0.02500   2.88518
    R8        2.87844  -0.05849   0.00000  -0.12488  -0.12504   2.75341
    R9        2.02201   0.00876   0.00000   0.01569   0.01569   2.03770
   R10        2.74951  -0.00348   0.00000  -0.00596  -0.00612   2.74340
   R11        2.40090   0.07007   0.00000   0.06773   0.06763   2.46853
   R12        2.42780   0.05287   0.00000   0.05140   0.05148   2.47928
   R13        2.02201   0.01601   0.00000   0.02868   0.02868   2.05069
   R14        2.02201   0.01680   0.00000   0.03011   0.03011   2.05212
   R15        2.02201   0.01836   0.00000   0.03291   0.03291   2.05491
   R16        2.64106   0.04158   0.00000   0.06357   0.06358   2.70464
   R17        2.57003  -0.05141   0.00000  -0.06768  -0.06768   2.50235
   R18        2.65816   0.02235   0.00000   0.03284   0.03285   2.69101
    A1        2.05190   0.00031   0.00000  -0.00006   0.00000   2.05190
    A2        2.11564   0.00504   0.00000   0.01821   0.01817   2.13382
    A3        2.11564  -0.00535   0.00000  -0.01815  -0.01818   2.09746
    A4        2.12542   0.00658   0.00000   0.01693   0.01710   2.14253
    A5        2.07888   0.00135   0.00000   0.00775   0.00765   2.08653
    A6        2.07888  -0.00792   0.00000  -0.02467  -0.02477   2.05411
    A7        2.12383  -0.00499   0.00000  -0.01249  -0.01250   2.11133
    A8        2.07968  -0.00585   0.00000  -0.01456  -0.01455   2.06512
    A9        2.07968   0.01084   0.00000   0.02705   0.02705   2.10673
   A10        2.04881   0.00009   0.00000   0.00150   0.00119   2.05000
   A11        2.11719   0.00561   0.00000   0.01903   0.01919   2.13638
   A12        2.11719  -0.00570   0.00000  -0.02054  -0.02038   2.09681
   A13        2.11337   0.00589   0.00000   0.01288   0.01288   2.12625
   A14        2.30549  -0.00445   0.00000  -0.01502  -0.01435   2.29113
   A15        1.86428  -0.00143   0.00000   0.00220   0.00151   1.86580
   A16        2.10301  -0.00787   0.00000  -0.01873  -0.01865   2.08436
   A17        2.29315  -0.01391   0.00000  -0.03454  -0.03407   2.25909
   A18        1.88700   0.02179   0.00000   0.05335   0.05274   1.93974
   A19        1.91063   0.00234   0.00000   0.00843   0.00836   1.91900
   A20        1.91063   0.00432   0.00000   0.01526   0.01519   1.92582
   A21        1.91063   0.00284   0.00000   0.00954   0.00949   1.92012
   A22        1.91063  -0.00288   0.00000  -0.00925  -0.00933   1.90130
   A23        1.91063  -0.00277   0.00000  -0.01004  -0.01008   1.90056
   A24        1.91063  -0.00385   0.00000  -0.01395  -0.01401   1.89662
   A25        1.92674  -0.01777   0.00000  -0.03571  -0.03665   1.89008
   A26        2.17813   0.03082   0.00000   0.07247   0.07266   2.25079
   A27        2.17831  -0.01306   0.00000  -0.03689  -0.03656   2.14174
   A28        1.89448  -0.01883   0.00000  -0.05074  -0.05177   1.84271
   A29        1.82943   0.01826   0.00000   0.05027   0.04942   1.87885
    D1       -0.00232   0.00022   0.00000   0.00187   0.00169  -0.00063
    D2        3.13975  -0.00032   0.00000  -0.00338  -0.00347   3.13628
    D3        3.13879   0.00079   0.00000   0.00696   0.00676  -3.13763
    D4       -0.00233   0.00025   0.00000   0.00170   0.00160  -0.00072
    D5       -0.00298   0.00020   0.00000   0.00101   0.00102  -0.00197
    D6        3.12969   0.00135   0.00000   0.01298   0.01244  -3.14106
    D7        3.13909  -0.00038   0.00000  -0.00408  -0.00396   3.13513
    D8       -0.01142   0.00078   0.00000   0.00788   0.00746  -0.00396
    D9        0.00259  -0.00019   0.00000  -0.00147  -0.00139   0.00120
   D10       -3.13901  -0.00002   0.00000   0.00018   0.00028  -3.13873
   D11       -3.13948   0.00036   0.00000   0.00379   0.00369  -3.13579
   D12        0.00211   0.00053   0.00000   0.00544   0.00536   0.00747
   D13        0.00246  -0.00019   0.00000  -0.00169  -0.00156   0.00091
   D14       -3.13954  -0.00016   0.00000  -0.00206  -0.00199  -3.14153
   D15       -3.13912  -0.00037   0.00000  -0.00334  -0.00326   3.14080
   D16        0.00206  -0.00034   0.00000  -0.00371  -0.00370  -0.00164
   D17       -2.61799  -0.00078   0.00000  -0.00754  -0.00759  -2.62558
   D18       -0.52359  -0.00023   0.00000  -0.00436  -0.00438  -0.52798
   D19        1.57080  -0.00056   0.00000  -0.00625  -0.00627   1.56453
   D20        0.52359  -0.00061   0.00000  -0.00594  -0.00593   0.51767
   D21        2.61799  -0.00006   0.00000  -0.00275  -0.00272   2.61527
   D22       -1.57080  -0.00039   0.00000  -0.00465  -0.00461  -1.57541
   D23       -0.00776   0.00057   0.00000   0.00447   0.00420  -0.00356
   D24       -3.13797  -0.00015   0.00000  -0.00280  -0.00255  -3.14053
   D25        3.13424   0.00054   0.00000   0.00483   0.00462   3.13886
   D26        0.00403  -0.00018   0.00000  -0.00244  -0.00214   0.00189
   D27        0.00817  -0.00058   0.00000  -0.00421  -0.00400   0.00417
   D28       -3.12638  -0.00135   0.00000  -0.01332  -0.01312  -3.13950
   D29        3.14094  -0.00006   0.00000   0.00129   0.00118  -3.14106
   D30        0.00639  -0.00083   0.00000  -0.00782  -0.00793  -0.00154
   D31       -3.03160  -0.00556   0.00000  -0.04267  -0.04227  -3.07386
   D32        0.11448  -0.00174   0.00000  -0.01185  -0.01085   0.10364
   D33        0.12018  -0.00624   0.00000  -0.04924  -0.04834   0.07184
   D34       -3.01693  -0.00241   0.00000  -0.01842  -0.01692  -3.03385
   D35        3.02170   0.00558   0.00000   0.04922   0.04872   3.07043
   D36       -0.12798   0.00653   0.00000   0.05984   0.05914  -0.06883
   D37       -0.19457   0.00799   0.00000   0.07855   0.07946  -0.11510
   D38        2.94254   0.00430   0.00000   0.04806   0.05077   2.99330
   D39        0.19487  -0.00892   0.00000  -0.08477  -0.08436   0.11051
         Item               Value     Threshold  Converged?
 Maximum Force            0.070067     0.000450     NO 
 RMS     Force            0.017728     0.000300     NO 
 Maximum Displacement     0.137692     0.001800     NO 
 RMS     Displacement     0.042478     0.001200     NO 
 Predicted change in Energy=-3.359687D-02
 GradGradGradGradGradGradGradGradGradGradGradGradGradGradGradGradGradGrad

                          Input orientation:                          
 ---------------------------------------------------------------------
 Center     Atomic      Atomic             Coordinates (Angstroms)
 Number     Number       Type             X           Y           Z
 ---------------------------------------------------------------------
      1          6           0       -1.389709   -0.049305   -0.240117
      2          6           0       -2.516635    0.702123   -0.111131
      3          6           0       -2.481981    2.180905    0.149587
      4          6           0       -1.297019    2.844766    0.268774
      5          6           0       -0.073599    2.065267    0.132428
      6          6           0       -0.100720    0.635258   -0.116369
      7          1           0       -1.423971   -1.110326   -0.430883
      8          1           0       -3.484070    0.231048   -0.201575
      9          1           0       -1.245145    3.905444    0.455884
     10          6           0       -3.808910    2.924647    0.280513
     11          1           0       -3.691793    3.951784   -0.049456
     12          1           0       -4.571960    2.444782   -0.325073
     13          1           0       -4.135689    2.923073    1.317663
     14          7           0        1.183134    2.415714    0.197279
     15          7           0        1.113922    0.146368   -0.199540
     16          8           0        1.985408    1.268065   -0.098835
     17          8           0        1.704565    3.590548    0.515618
 ---------------------------------------------------------------------
                    Distance matrix (angstroms):
                    1          2          3          4          5
     1  C    0.000000
     2  C    1.360605   0.000000
     3  C    2.513715   1.501988   0.000000
     4  C    2.939933   2.494535   1.363470   0.000000
     5  C    2.518402   2.808185   2.411218   1.457040   0.000000
     6  C    1.464730   2.416846   2.851344   2.541927   1.451744
     7  H    1.078578   2.140358   3.505500   4.018506   3.496458
     8  H    2.113394   1.079825   2.220234   3.440340   3.886802
     9  H    4.018129   3.492772   2.144205   1.078304   2.205311
    10  C    3.868847   2.600571   1.526772   2.513188   3.835754
    11  H    4.620029   3.456168   2.153899   2.657387   4.084527
    12  H    4.044059   2.703145   2.159386   3.352295   4.537465
    13  H    4.336141   3.097645   2.156378   3.027268   4.317544
    14  N    3.589868   4.088985   3.672939   2.518007   1.306292
    15  N    2.511594   3.673911   4.146294   3.648740   2.280917
    16  O    3.625857   4.537492   4.566460   3.659979   2.220028
    17  O    4.836755   5.153091   4.432634   3.102682   2.373855
                    6          7          8          9         10
     6  C    0.000000
     7  H    2.212911   0.000000
     8  H    3.408476   2.468983   0.000000
     9  H    3.511595   5.096694   4.352726   0.000000
    10  C    4.376013   4.740783   2.755613   2.750565   0.000000
    11  H    4.888725   5.559989   3.729634   2.498721   1.085177
    12  H    4.828035   4.749719   2.469691   3.716332   1.085933
    13  H    4.855051   5.165185   3.159064   3.172217   1.087413
    14  N    2.217359   4.429960   5.168621   2.860545   5.018610
    15  N    1.311978   2.841426   4.598772   4.486138   5.673055
    16  O    2.180064   4.170235   5.567868   4.207131   6.038401
    17  O    3.520256   5.725541   6.222744   2.967073   5.558516
                   11         12         13         14         15
    11  H    0.000000
    12  H    1.766837   0.000000
    13  H    1.767571   1.765695   0.000000
    14  N    5.117159   5.778824   5.459172   0.000000
    15  N    6.131772   6.134144   6.129471   2.304818   0.000000
    16  O    6.279761   6.665952   6.497180   1.431231   1.424020
    17  O    5.437875   6.435395   5.932737   1.324185   3.566888
                   16         17
    16  O    0.000000
    17  O    2.418750   0.000000
 Stoichiometry    C7H6N2O2
 Framework group  C1[X(C7H6N2O2)]
 Deg. of freedom    45
 Full point group                 C1      NOp   1
 Largest Abelian subgroup         C1      NOp   1
 Largest concise Abelian subgroup C1      NOp   1
                         Standard orientation:                         
 ---------------------------------------------------------------------
 Center     Atomic      Atomic             Coordinates (Angstroms)
 Number     Number       Type             X           Y           Z
 ---------------------------------------------------------------------
      1          6           0        0.740716    1.875151    0.028950
      2          6           0        1.906397    1.173536    0.015933
      3          6           0        1.951220   -0.327592   -0.008046
      4          6           0        0.803592   -1.063713   -0.019360
      5          6           0       -0.459974   -0.338284   -0.008475
      6          6           0       -0.509674    1.112368    0.017960
      7          1           0        0.717911    2.953403    0.042541
      8          1           0        2.847117    1.703689    0.018485
      9          1           0        0.808763   -2.141868   -0.036516
     10          6           0        3.316236   -1.011463   -0.017250
     11          1           0        3.250477   -1.962383   -0.535936
     12          1           0        4.048389   -0.386066   -0.519327
     13          1           0        3.650545   -1.188804    1.002189
     14          7           0       -1.696100   -0.760611   -0.013982
     15          7           0       -1.748850    1.543255    0.026072
     16          8           0       -2.559621    0.378281   -0.089337
     17          8           0       -2.152832   -2.000344    0.075045
 ---------------------------------------------------------------------
 Rotational constants (GHZ):      2.1662927      0.9127470      0.6451792
 Standard basis: 6-31G (6D, 7F)
 There are   111 symmetry adapted cartesian basis functions of A   symmetry.
 There are   111 symmetry adapted basis functions of A   symmetry.
   111 basis functions,   266 primitive gaussians,   111 cartesian basis functions
    39 alpha electrons       39 beta electrons
       nuclear repulsion energy       575.2524142171 Hartrees.
 NAtoms=   17 NActive=   17 NUniq=   17 SFac= 1.00D+00 NAtFMM=   60 NAOKFM=F Big=F
 Integral buffers will be    131072 words long.
 Raffenetti 2 integral format.
 Two-electron integral symmetry is turned on.
 One-electron integrals computed using PRISM.
 NBasis=   111 RedAO= T EigKep=  6.33D-04  NBF=   111
 NBsUse=   111 1.00D-06 EigRej= -1.00D+00 NBFU=   111
 Initial guess from the checkpoint file:  "C:\Users\123\Downloads\leemol\christy\mo440.chk"
 B after Tr=     0.000000    0.000000    0.000000
         Rot=    0.999995   -0.000042    0.000176    0.003306 Ang=  -0.38 deg.
 ExpMin= 1.61D-01 ExpMax= 5.48D+03 ExpMxC= 8.25D+02 IAcc=1 IRadAn=         1 AccDes= 0.00D+00
 Harris functional with IExCor=  402 and IRadAn=       1 diagonalized for initial guess.
 HarFok:  IExCor=  402 AccDes= 0.00D+00 IRadAn=         1 IDoV= 1 UseB2=F ITyADJ=14
 ICtDFT=  3500011 ScaDFX=  1.000000  1.000000  1.000000  1.000000
 FoFCou: FMM=F IPFlag=           0 FMFlag=      100000 FMFlg1=           0
         NFxFlg=           0 DoJE=T BraDBF=F KetDBF=T FulRan=T
         wScrn=  0.000000 ICntrl=     500 IOpCl=  0 I1Cent=   200000004 NGrid=           0
         NMat0=    1 NMatS0=      1 NMatT0=    0 NMatD0=    1 NMtDS0=    0 NMtDT0=    0
 Petite list used in FoFCou.
 Keep R1 ints in memory in canonical form, NReq=20311515.
 Requested convergence on RMS density matrix=1.00D-08 within 128 cycles.
 Requested convergence on MAX density matrix=1.00D-06.
 Requested convergence on             energy=1.00D-06.
 No special actions if energy rises.
 Integral accuracy reduced to 1.0D-05 until final iterations.
 Initial convergence to 1.0D-05 achieved.  Increase integral accuracy.
 SCF Done:  E(RB3LYP) =  -529.974620814     A.U. after   16 cycles
            NFock= 16  Conv=0.60D-08     -V/T= 2.0054
 Calling FoFJK, ICntrl=      2127 FMM=F ISym2X=0 I1Cent= 0 IOpClX= 0 NMat=1 NMatS=1 NMatT=0.
 ***** Axes restored to original set *****
 -------------------------------------------------------------------
 Center     Atomic                   Forces (Hartrees/Bohr)
 Number     Number              X              Y              Z
 -------------------------------------------------------------------
      1        6           0.020018884    0.010524650    0.003914431
      2        6           0.004973578    0.029160331    0.005880208
      3        6          -0.014469371   -0.022575068   -0.004819931
      4        6           0.027262456   -0.015886142   -0.001572628
      5        6          -0.055670280   -0.015639138   -0.003386522
      6        6          -0.037895132    0.012023946    0.002286924
      7        1           0.001648937   -0.002927843   -0.000719047
      8        1          -0.003887550   -0.000193050   -0.000300770
      9        1           0.001890649    0.003251606    0.000159256
     10        6           0.015337005   -0.009769550   -0.003076952
     11        1          -0.001610892    0.005935570   -0.000363821
     12        1          -0.005331062   -0.000970803   -0.002296178
     13        1          -0.004132531    0.000755410    0.005458185
     14        7           0.022970141    0.078782323    0.019051832
     15        7           0.015691749   -0.019858067   -0.012069592
     16        8           0.020898360   -0.011568628    0.006888227
     17        8          -0.007694941   -0.041045548   -0.015033621
 -------------------------------------------------------------------
 Cartesian Forces:  Max     0.078782323 RMS     0.019347569

 GradGradGradGradGradGradGradGradGradGradGradGradGradGradGradGradGradGrad
 Berny optimization.
 Using GEDIIS/GDIIS optimizer.
 FormGI is forming the generalized inverse of G from B-inverse, IUseBI=4.
 Internal  Forces:  Max     0.043059894 RMS     0.009089895
 Search for a local minimum.
 Step number   2 out of a maximum of   96
 All quantities printed in internal units (Hartrees-Bohrs-Radians)
 Mixed Optimization -- RFO/linear search
 Update second derivatives using D2CorX and points    1    2
 DE= -3.61D-02 DEPred=-3.36D-02 R= 1.07D+00
 TightC=F SS=  1.41D+00  RLast= 3.42D-01 DXNew= 5.0454D-01 1.0259D+00
 Trust test= 1.07D+00 RLast= 3.42D-01 DXMaxT set to 5.05D-01
 ITU=  1  0
 Use linear search instead of GDIIS.
     Eigenvalues ---    0.00237   0.00744   0.00829   0.01071   0.01351
     Eigenvalues ---    0.01425   0.01480   0.01545   0.01883   0.01970
     Eigenvalues ---    0.02410   0.02853   0.07094   0.07135   0.15836
     Eigenvalues ---    0.16000   0.16000   0.16000   0.16000   0.16087
     Eigenvalues ---    0.21289   0.22420   0.23564   0.24646   0.24980
     Eigenvalues ---    0.24999   0.25311   0.26976   0.27894   0.28607
     Eigenvalues ---    0.29379   0.35248   0.37222   0.37230   0.37230
     Eigenvalues ---    0.37230   0.37230   0.37463   0.42098   0.43493
     Eigenvalues ---    0.48453   0.49695   0.53183   0.66432   0.70713
 RFO step:  Lambda=-7.87502013D-03 EMin= 2.36828278D-03
 Quartic linear search produced a step of  0.79201.
 Iteration  1 RMS(Cart)=  0.04063599 RMS(Int)=  0.00168175
 Iteration  2 RMS(Cart)=  0.00138879 RMS(Int)=  0.00036289
 Iteration  3 RMS(Cart)=  0.00000353 RMS(Int)=  0.00036287
 Iteration  4 RMS(Cart)=  0.00000000 RMS(Int)=  0.00036287
 Variable       Old X    -DE/DX   Delta X   Delta X   Delta X     New X
                                 (Linear)    (Quad)   (Total)
    R1        2.57117   0.00318  -0.01764   0.03373   0.01631   2.58748
    R2        2.76794  -0.02199  -0.08902  -0.00825  -0.09725   2.67068
    R3        2.03822   0.00295   0.01284  -0.00288   0.00996   2.04817
    R4        2.83835  -0.02725  -0.10452  -0.03205  -0.13637   2.70197
    R5        2.04057   0.00359   0.01471  -0.00232   0.01238   2.05296
    R6        2.57659   0.00592  -0.01199   0.03660   0.02459   2.60117
    R7        2.88518  -0.00570  -0.01980  -0.00748  -0.02727   2.85791
    R8        2.75341  -0.02558  -0.09903  -0.01425  -0.11350   2.63990
    R9        2.03770   0.00332   0.01243  -0.00064   0.01179   2.04948
   R10        2.74340  -0.00896  -0.00484  -0.03941  -0.04461   2.69879
   R11        2.46853   0.03410   0.05357   0.01746   0.07092   2.53945
   R12        2.47928   0.02554   0.04077   0.01226   0.05302   2.53230
   R13        2.05069   0.00555   0.02271  -0.00356   0.01915   2.06984
   R14        2.05212   0.00546   0.02385  -0.00550   0.01834   2.07046
   R15        2.05491   0.00645   0.02606  -0.00375   0.02232   2.07723
   R16        2.70464   0.02297   0.05036   0.02732   0.07778   2.78242
   R17        2.50235  -0.04306  -0.05360  -0.07702  -0.13062   2.37173
   R18        2.69101   0.00974   0.02602   0.00457   0.03074   2.72175
    A1        2.05190   0.00035   0.00000   0.00084   0.00088   2.05278
    A2        2.13382   0.00160   0.01439  -0.00474   0.00962   2.14344
    A3        2.09746  -0.00195  -0.01440   0.00391  -0.01052   2.08694
    A4        2.14253   0.00130   0.01355  -0.00552   0.00824   2.15077
    A5        2.08653   0.00089   0.00606  -0.00155   0.00440   2.09094
    A6        2.05411  -0.00219  -0.01962   0.00708  -0.01264   2.04147
    A7        2.11133  -0.00442  -0.00990  -0.01146  -0.02142   2.08991
    A8        2.06512  -0.00015  -0.01153   0.01281   0.00127   2.06639
    A9        2.10673   0.00457   0.02143  -0.00137   0.02003   2.12676
   A10        2.05000   0.00111   0.00094   0.00829   0.00877   2.05877
   A11        2.13638   0.00121   0.01520  -0.01065   0.00478   2.14116
   A12        2.09681  -0.00232  -0.01614   0.00236  -0.01355   2.08325
   A13        2.12625   0.00320   0.01020   0.00055   0.01073   2.13698
   A14        2.29113  -0.00442  -0.01137  -0.01412  -0.02454   2.26659
   A15        1.86580   0.00123   0.00120   0.01360   0.01379   1.87959
   A16        2.08436  -0.00153  -0.01477   0.00733  -0.00724   2.07712
   A17        2.25909  -0.00411  -0.02698   0.01623  -0.00997   2.24911
   A18        1.93974   0.00565   0.04177  -0.02353   0.01721   1.95695
   A19        1.91900   0.00276   0.00662   0.02020   0.02650   1.94550
   A20        1.92582   0.00214   0.01203   0.00358   0.01535   1.94117
   A21        1.92012   0.00221   0.00751   0.00989   0.01720   1.93732
   A22        1.90130  -0.00208  -0.00739  -0.00709  -0.01482   1.88648
   A23        1.90056  -0.00260  -0.00798  -0.01508  -0.02331   1.87725
   A24        1.89662  -0.00258  -0.01110  -0.01230  -0.02353   1.87308
   A25        1.89008  -0.00556  -0.02903   0.01385  -0.01647   1.87362
   A26        2.25079   0.01541   0.05755   0.02010   0.07798   2.32877
   A27        2.14174  -0.00987  -0.02896  -0.03236  -0.06099   2.08075
   A28        1.84271  -0.00062  -0.04100   0.04548   0.00309   1.84581
   A29        1.87885  -0.00010   0.03914  -0.04916  -0.01125   1.86760
    D1       -0.00063   0.00002   0.00134  -0.00179  -0.00063  -0.00126
    D2        3.13628  -0.00013  -0.00275   0.00342   0.00053   3.13681
    D3       -3.13763   0.00028   0.00536  -0.00202   0.00322  -3.13441
    D4       -0.00072   0.00013   0.00127   0.00318   0.00438   0.00366
    D5       -0.00197   0.00018   0.00081   0.00726   0.00798   0.00601
    D6       -3.14106   0.00040   0.00985  -0.00731   0.00230  -3.13876
    D7        3.13513  -0.00007  -0.00314   0.00747   0.00431   3.13944
    D8       -0.00396   0.00015   0.00591  -0.00711  -0.00137  -0.00533
    D9        0.00120  -0.00005  -0.00110   0.00039  -0.00061   0.00059
   D10       -3.13873   0.00020   0.00022   0.01443   0.01454  -3.12419
   D11       -3.13579   0.00009   0.00292  -0.00470  -0.00178  -3.13757
   D12        0.00747   0.00034   0.00424   0.00933   0.01337   0.02084
   D13        0.00091  -0.00011  -0.00123  -0.00440  -0.00563  -0.00472
   D14       -3.14153  -0.00008  -0.00158   0.00021  -0.00135   3.14031
   D15        3.14080  -0.00037  -0.00258  -0.01876  -0.02135   3.11946
   D16       -0.00164  -0.00034  -0.00293  -0.01414  -0.01706  -0.01870
   D17       -2.62558  -0.00076  -0.00601  -0.04028  -0.04643  -2.67201
   D18       -0.52798  -0.00022  -0.00347  -0.03388  -0.03737  -0.56534
   D19        1.56453  -0.00066  -0.00497  -0.04057  -0.04569   1.51884
   D20        0.51767  -0.00050  -0.00469  -0.02627  -0.03090   0.48677
   D21        2.61527   0.00004  -0.00215  -0.01987  -0.02184   2.59343
   D22       -1.57541  -0.00041  -0.00365  -0.02657  -0.03015  -1.60556
   D23       -0.00356   0.00030   0.00332   0.01013   0.01341   0.00985
   D24       -3.14053   0.00006  -0.00202   0.00188  -0.00011  -3.14063
   D25        3.13886   0.00027   0.00366   0.00563   0.00926  -3.13507
   D26        0.00189   0.00003  -0.00169  -0.00262  -0.00425  -0.00236
   D27        0.00417  -0.00034  -0.00317  -0.01173  -0.01480  -0.01064
   D28       -3.13950  -0.00053  -0.01039   0.00039  -0.01006   3.13363
   D29       -3.14106  -0.00017   0.00094  -0.00531  -0.00401   3.13812
   D30       -0.00154  -0.00036  -0.00628   0.00681   0.00074  -0.00080
   D31       -3.07386  -0.00248  -0.03348   0.00203  -0.03110  -3.10497
   D32        0.10364  -0.00146  -0.00859  -0.04755  -0.05612   0.04752
   D33        0.07184  -0.00270  -0.03828  -0.00529  -0.04309   0.02875
   D34       -3.03385  -0.00168  -0.01340  -0.05486  -0.06810  -3.10195
   D35        3.07043   0.00255   0.03859   0.00746   0.04625   3.11668
   D36       -0.06883   0.00277   0.04684  -0.00618   0.04092  -0.02792
   D37       -0.11510   0.00460   0.06293   0.00616   0.06951  -0.04560
   D38        2.99330   0.00428   0.04021   0.05320   0.09362   3.08693
   D39        0.11051  -0.00444  -0.06681   0.00012  -0.06648   0.04403
         Item               Value     Threshold  Converged?
 Maximum Force            0.043060     0.000450     NO 
 RMS     Force            0.009090     0.000300     NO 
 Maximum Displacement     0.134594     0.001800     NO 
 RMS     Displacement     0.040669     0.001200     NO 
 Predicted change in Energy=-1.410017D-02
 GradGradGradGradGradGradGradGradGradGradGradGradGradGradGradGradGradGrad

                          Input orientation:                          
 ---------------------------------------------------------------------
 Center     Atomic      Atomic             Coordinates (Angstroms)
 Number     Number       Type             X           Y           Z
 ---------------------------------------------------------------------
      1          6           0       -1.376590   -0.002368   -0.233362
      2          6           0       -2.509490    0.756316   -0.107868
      3          6           0       -2.486114    2.164954    0.136235
      4          6           0       -1.279976    2.817535    0.254843
      5          6           0       -0.111552    2.061226    0.135154
      6          6           0       -0.131291    0.655231   -0.114568
      7          1           0       -1.402207   -1.068856   -0.424859
      8          1           0       -3.485626    0.287968   -0.197455
      9          1           0       -1.206707    3.883865    0.438694
     10          6           0       -3.804461    2.892143    0.278804
     11          1           0       -3.714322    3.945457   -0.007749
     12          1           0       -4.579327    2.434676   -0.346282
     13          1           0       -4.161404    2.860559    1.317978
     14          7           0        1.174214    2.444732    0.209856
     15          7           0        1.102967    0.140547   -0.200606
     16          8           0        2.002925    1.253293   -0.038440
     17          8           0        1.734790    3.542880    0.444394
 ---------------------------------------------------------------------
                    Distance matrix (angstroms):
                    1          2          3          4          5
     1  C    0.000000
     2  C    1.369238   0.000000
     3  C    2.462707   1.429823   0.000000
     4  C    2.863482   2.427322   1.376481   0.000000
     5  C    2.448375   2.740795   2.376826   1.396976   0.000000
     6  C    1.413265   2.380356   2.808443   2.476186   1.428136
     7  H    1.083847   2.158196   3.456473   3.947274   3.431736
     8  H    2.129229   1.086377   2.152544   3.386469   3.826152
     9  H    3.947572   3.431842   2.164028   1.084541   2.147909
    10  C    3.812488   2.527494   1.512339   2.525701   3.787959
    11  H    4.593606   3.410611   2.167814   2.695775   4.068255
    12  H    4.026097   2.675436   2.164975   3.375449   4.509130
    13  H    4.284646   3.031451   2.164944   3.071602   4.294101
    14  N    3.562491   4.064650   3.671743   2.482751   1.343820
    15  N    2.483889   3.665736   4.134391   3.612771   2.297129
    16  O    3.610512   4.540231   4.584005   3.648329   2.270221
    17  O    4.765378   5.107236   4.450806   3.106585   2.387449
                    6          7          8          9         10
     6  C    0.000000
     7  H    2.164251   0.000000
     8  H    3.375398   2.496662   0.000000
     9  H    3.447709   5.031241   4.304489   0.000000
    10  C    4.318645   4.685668   2.666497   2.785211   0.000000
    11  H    4.865707   5.537436   3.669539   2.547790   1.095312
    12  H    4.796367   4.730222   2.413853   3.753785   1.095640
    13  H    4.812221   5.107931   3.061280   3.248158   1.099222
    14  N    2.238730   4.402966   5.150887   2.791461   4.999214
    15  N    1.340036   2.790850   4.590962   4.444742   5.646589
    16  O    2.217736   4.139640   5.575063   4.177237   6.042533
    17  O    3.483277   5.644862   6.185400   2.961201   5.579802
                   11         12         13         14         15
    11  H    0.000000
    12  H    1.773499   0.000000
    13  H    1.770435   1.767993   0.000000
    14  N    5.118331   5.780366   5.465315   0.000000
    15  N    6.141727   6.129659   6.117039   2.341543   0.000000
    16  O    6.319462   6.694511   6.513227   1.472393   1.440286
    17  O    5.482639   6.459208   5.999485   1.255063   3.520099
                   16         17
    16  O    0.000000
    17  O    2.355257   0.000000
 Stoichiometry    C7H6N2O2
 Framework group  C1[X(C7H6N2O2)]
 Deg. of freedom    45
 Full point group                 C1      NOp   1
 Largest Abelian subgroup         C1      NOp   1
 Largest concise Abelian subgroup C1      NOp   1
                         Standard orientation:                         
 ---------------------------------------------------------------------
 Center     Atomic      Atomic             Coordinates (Angstroms)
 Number     Number       Type             X           Y           Z
 ---------------------------------------------------------------------
      1          6           0        0.732442    1.825434    0.012552
      2          6           0        1.903877    1.116598    0.002366
      3          6           0        1.955013   -0.312237   -0.012179
      4          6           0        0.785057   -1.037411   -0.017168
      5          6           0       -0.421692   -0.333804   -0.001812
      6          6           0       -0.476360    1.093259    0.006718
      7          1           0        0.701591    2.908833    0.017013
      8          1           0        2.853866    1.643604    0.001897
      9          1           0        0.768265   -2.121754   -0.029268
     10          6           0        3.310122   -0.983569    0.000692
     11          1           0        3.272804   -1.971040   -0.471764
     12          1           0        4.056260   -0.381004   -0.529043
     13          1           0        3.671578   -1.121662    1.029560
     14          7           0       -1.685378   -0.790916   -0.001605
     15          7           0       -1.736132    1.550041    0.011304
     16          8           0       -2.576224    0.380981   -0.033059
     17          8           0       -2.186845   -1.941040    0.028897
 ---------------------------------------------------------------------
 Rotational constants (GHZ):      2.2573118      0.9111535      0.6518402
 Standard basis: 6-31G (6D, 7F)
 There are   111 symmetry adapted cartesian basis functions of A   symmetry.
 There are   111 symmetry adapted basis functions of A   symmetry.
   111 basis functions,   266 primitive gaussians,   111 cartesian basis functions
    39 alpha electrons       39 beta electrons
       nuclear repulsion energy       578.9173065009 Hartrees.
 NAtoms=   17 NActive=   17 NUniq=   17 SFac= 1.00D+00 NAtFMM=   60 NAOKFM=F Big=F
 Integral buffers will be    131072 words long.
 Raffenetti 2 integral format.
 Two-electron integral symmetry is turned on.
 One-electron integrals computed using PRISM.
 NBasis=   111 RedAO= T EigKep=  5.12D-04  NBF=   111
 NBsUse=   111 1.00D-06 EigRej= -1.00D+00 NBFU=   111
 Initial guess from the checkpoint file:  "C:\Users\123\Downloads\leemol\christy\mo440.chk"
 B after Tr=     0.000000    0.000000    0.000000
         Rot=    0.999998    0.000614   -0.000014    0.001701 Ang=   0.21 deg.
 ExpMin= 1.61D-01 ExpMax= 5.48D+03 ExpMxC= 8.25D+02 IAcc=1 IRadAn=         1 AccDes= 0.00D+00
 Harris functional with IExCor=  402 and IRadAn=       1 diagonalized for initial guess.
 HarFok:  IExCor=  402 AccDes= 0.00D+00 IRadAn=         1 IDoV= 1 UseB2=F ITyADJ=14
 ICtDFT=  3500011 ScaDFX=  1.000000  1.000000  1.000000  1.000000
 FoFCou: FMM=F IPFlag=           0 FMFlag=      100000 FMFlg1=           0
         NFxFlg=           0 DoJE=T BraDBF=F KetDBF=T FulRan=T
         wScrn=  0.000000 ICntrl=     500 IOpCl=  0 I1Cent=   200000004 NGrid=           0
         NMat0=    1 NMatS0=      1 NMatT0=    0 NMatD0=    1 NMtDS0=    0 NMtDT0=    0
 Petite list used in FoFCou.
 Keep R1 ints in memory in canonical form, NReq=20311515.
 Requested convergence on RMS density matrix=1.00D-08 within 128 cycles.
 Requested convergence on MAX density matrix=1.00D-06.
 Requested convergence on             energy=1.00D-06.
 No special actions if energy rises.
 Integral accuracy reduced to 1.0D-05 until final iterations.
 Initial convergence to 1.0D-05 achieved.  Increase integral accuracy.
 SCF Done:  E(RB3LYP) =  -529.986664134     A.U. after   17 cycles
            NFock= 17  Conv=0.42D-08     -V/T= 2.0050
 Calling FoFJK, ICntrl=      2127 FMM=F ISym2X=0 I1Cent= 0 IOpClX= 0 NMat=1 NMatS=1 NMatT=0.
 ***** Axes restored to original set *****
 -------------------------------------------------------------------
 Center     Atomic                   Forces (Hartrees/Bohr)
 Number     Number              X              Y              Z
 -------------------------------------------------------------------
      1        6          -0.004488239   -0.009391590   -0.001383217
      2        6          -0.004100919   -0.009782699   -0.001267572
      3        6          -0.004724647    0.009496940    0.001680866
      4        6          -0.005593768    0.013160709    0.002968968
      5        6           0.006188322   -0.011460527   -0.002864639
      6        6           0.011629501    0.006421995    0.001816110
      7        1          -0.000937494    0.000662973    0.000113145
      8        1           0.001333846   -0.001522373   -0.000343049
      9        1          -0.001658125   -0.000032890   -0.000191344
     10        6           0.001234350    0.002041405   -0.000021085
     11        1          -0.000237598   -0.000526179    0.000733214
     12        1           0.000353456    0.000467990    0.000113748
     13        1          -0.000128436   -0.000153423   -0.000565616
     14        7           0.000845042    0.017583507    0.003039862
     15        7           0.006659152   -0.007393581   -0.004735533
     16        8          -0.007465641   -0.013271862    0.001601843
     17        8           0.001091199    0.003699604   -0.000695700
 -------------------------------------------------------------------
 Cartesian Forces:  Max     0.017583507 RMS     0.005630191

 GradGradGradGradGradGradGradGradGradGradGradGradGradGradGradGradGradGrad
 Berny optimization.
 Using GEDIIS/GDIIS optimizer.
 FormGI is forming the generalized inverse of G from B-inverse, IUseBI=4.
 Internal  Forces:  Max     0.014371154 RMS     0.003626272
 Search for a local minimum.
 Step number   3 out of a maximum of   96
 All quantities printed in internal units (Hartrees-Bohrs-Radians)
 Mixed Optimization -- RFO/linear search
 Update second derivatives using D2CorX and points    2    3
 DE= -1.20D-02 DEPred=-1.41D-02 R= 8.54D-01
 TightC=F SS=  1.41D+00  RLast= 3.69D-01 DXNew= 8.4853D-01 1.1067D+00
 Trust test= 8.54D-01 RLast= 3.69D-01 DXMaxT set to 8.49D-01
 ITU=  1  1  0
 Use linear search instead of GDIIS.
     Eigenvalues ---    0.00237   0.00746   0.00830   0.01075   0.01360
     Eigenvalues ---    0.01434   0.01492   0.01545   0.01884   0.01965
     Eigenvalues ---    0.02361   0.02927   0.06838   0.06930   0.15740
     Eigenvalues ---    0.16000   0.16000   0.16000   0.16006   0.16143
     Eigenvalues ---    0.21675   0.22458   0.23542   0.24638   0.24996
     Eigenvalues ---    0.25099   0.26317   0.26915   0.28478   0.29334
     Eigenvalues ---    0.33842   0.35262   0.37022   0.37230   0.37230
     Eigenvalues ---    0.37230   0.37233   0.37248   0.41187   0.43757
     Eigenvalues ---    0.48380   0.51269   0.52755   0.66410   0.69891
 RFO step:  Lambda=-3.71365500D-03 EMin= 2.36698903D-03
 Quartic linear search produced a step of -0.09927.
 Iteration  1 RMS(Cart)=  0.03387651 RMS(Int)=  0.00109666
 Iteration  2 RMS(Cart)=  0.00107727 RMS(Int)=  0.00034232
 Iteration  3 RMS(Cart)=  0.00000097 RMS(Int)=  0.00034232
 Variable       Old X    -DE/DX   Delta X   Delta X   Delta X     New X
                                 (Linear)    (Quad)   (Total)
    R1        2.58748   0.00453  -0.00162   0.01154   0.00996   2.59744
    R2        2.67068   0.01059   0.00965   0.01681   0.02642   2.69710
    R3        2.04817  -0.00065  -0.00099  -0.00029  -0.00128   2.04689
    R4        2.70197   0.01437   0.01354   0.02707   0.04069   2.74266
    R5        2.05296  -0.00051  -0.00123   0.00040  -0.00083   2.05212
    R6        2.60117   0.00386  -0.00244   0.01188   0.00949   2.61066
    R7        2.85791  -0.00016   0.00271  -0.00477  -0.00206   2.85584
    R8        2.63990   0.01418   0.01127   0.02513   0.03637   2.67627
    R9        2.04948  -0.00018  -0.00117   0.00119   0.00002   2.04951
   R10        2.69879   0.00593   0.00443   0.00617   0.01062   2.70941
   R11        2.53945   0.00333  -0.00704   0.01446   0.00747   2.54692
   R12        2.53230   0.00249  -0.00526   0.01010   0.00486   2.53716
   R13        2.06984  -0.00072  -0.00190   0.00080  -0.00110   2.06874
   R14        2.07046  -0.00051  -0.00182   0.00109  -0.00073   2.06973
   R15        2.07723  -0.00049  -0.00222   0.00177  -0.00044   2.07679
   R16        2.78242   0.01127  -0.00772   0.03413   0.02632   2.80873
   R17        2.37173   0.00359   0.01297  -0.01524  -0.00228   2.36945
   R18        2.72175  -0.00327  -0.00305  -0.00257  -0.00571   2.71604
    A1        2.05278   0.00053  -0.00009   0.00180   0.00160   2.05438
    A2        2.14344  -0.00124  -0.00096  -0.00472  -0.00561   2.13782
    A3        2.08694   0.00071   0.00104   0.00289   0.00399   2.09093
    A4        2.15077   0.00071  -0.00082   0.00301   0.00222   2.15299
    A5        2.09094  -0.00239  -0.00044  -0.01137  -0.01182   2.07912
    A6        2.04147   0.00168   0.00125   0.00834   0.00958   2.05106
    A7        2.08991  -0.00029   0.00213  -0.00489  -0.00271   2.08719
    A8        2.06639   0.00316  -0.00013   0.01194   0.01179   2.07818
    A9        2.12676  -0.00287  -0.00199  -0.00710  -0.00911   2.11765
   A10        2.05877  -0.00144  -0.00087  -0.00326  -0.00420   2.05457
   A11        2.14116  -0.00097  -0.00047  -0.00628  -0.00673   2.13443
   A12        2.08325   0.00241   0.00135   0.00955   0.01093   2.09418
   A13        2.13698   0.00186  -0.00107   0.00813   0.00716   2.14414
   A14        2.26659  -0.00295   0.00244  -0.01638  -0.01356   2.25303
   A15        1.87959   0.00109  -0.00137   0.00816   0.00627   1.88585
   A16        2.07712  -0.00136   0.00072  -0.00478  -0.00405   2.07307
   A17        2.24911  -0.00372   0.00099  -0.01402  -0.01267   2.23645
   A18        1.95695   0.00509  -0.00171   0.01885   0.01654   1.97348
   A19        1.94550   0.00039  -0.00263   0.00728   0.00467   1.95017
   A20        1.94117   0.00009  -0.00152   0.00325   0.00174   1.94290
   A21        1.93732   0.00011  -0.00171   0.00324   0.00154   1.93887
   A22        1.88648  -0.00015   0.00147  -0.00271  -0.00122   1.88526
   A23        1.87725  -0.00032   0.00231  -0.00637  -0.00404   1.87321
   A24        1.87308  -0.00016   0.00234  -0.00559  -0.00324   1.86984
   A25        1.87362  -0.00882   0.00163  -0.02976  -0.02893   1.84469
   A26        2.32877   0.00373  -0.00774   0.02381   0.01643   2.34519
   A27        2.08075   0.00509   0.00605   0.00584   0.01229   2.09304
   A28        1.84581  -0.00706  -0.00031  -0.02447  -0.02600   1.81981
   A29        1.86760   0.00980   0.00112   0.03243   0.03211   1.89971
    D1       -0.00126   0.00002   0.00006   0.00122   0.00118  -0.00008
    D2        3.13681  -0.00001  -0.00005  -0.00323  -0.00325   3.13356
    D3       -3.13441   0.00004  -0.00032   0.00483   0.00432  -3.13009
    D4        0.00366   0.00000  -0.00044   0.00038  -0.00011   0.00355
    D5        0.00601  -0.00008  -0.00079  -0.00317  -0.00391   0.00210
    D6       -3.13876   0.00019  -0.00023   0.02200   0.02133  -3.11743
    D7        3.13944  -0.00011  -0.00043  -0.00670  -0.00701   3.13243
    D8       -0.00533   0.00016   0.00014   0.01847   0.01823   0.01290
    D9        0.00059   0.00002   0.00006   0.00171   0.00182   0.00241
   D10       -3.12419   0.00003  -0.00144   0.00568   0.00434  -3.11985
   D11       -3.13757   0.00007   0.00018   0.00608   0.00622  -3.13135
   D12        0.02084   0.00008  -0.00133   0.01005   0.00874   0.02957
   D13       -0.00472   0.00001   0.00056  -0.00249  -0.00182  -0.00654
   D14        3.14031  -0.00012   0.00013  -0.00668  -0.00650   3.13381
   D15        3.11946   0.00006   0.00212  -0.00640  -0.00419   3.11527
   D16       -0.01870  -0.00007   0.00169  -0.01060  -0.00886  -0.02756
   D17       -2.67201  -0.00042   0.00461  -0.07957  -0.07497  -2.74698
   D18       -0.56534  -0.00028   0.00371  -0.07580  -0.07210  -0.63745
   D19        1.51884  -0.00035   0.00454  -0.07855  -0.07402   1.44483
   D20        0.48677  -0.00043   0.00307  -0.07555  -0.07247   0.41430
   D21        2.59343  -0.00029   0.00217  -0.07178  -0.06961   2.52383
   D22       -1.60556  -0.00036   0.00299  -0.07453  -0.07153  -1.67709
   D23        0.00985  -0.00005  -0.00133   0.00057  -0.00096   0.00889
   D24       -3.14063  -0.00007   0.00001  -0.01414  -0.01404   3.12851
   D25       -3.13507   0.00006  -0.00092   0.00459   0.00357  -3.13150
   D26       -0.00236   0.00005   0.00042  -0.01012  -0.00951  -0.01187
   D27       -0.01064   0.00010   0.00147   0.00236   0.00395  -0.00669
   D28        3.13363  -0.00012   0.00100  -0.01874  -0.01759   3.11604
   D29        3.13812   0.00013   0.00040   0.01432   0.01472  -3.13035
   D30       -0.00080  -0.00008  -0.00007  -0.00678  -0.00681  -0.00762
   D31       -3.10497  -0.00118   0.00309  -0.04282  -0.03907   3.13915
   D32        0.04752  -0.00072   0.00557  -0.03017  -0.02425   0.02327
   D33        0.02875  -0.00119   0.00428  -0.05582  -0.05061  -0.02186
   D34       -3.10195  -0.00073   0.00676  -0.04317  -0.03579  -3.13774
   D35        3.11668   0.00091  -0.00459   0.04280   0.03787  -3.12864
   D36       -0.02792   0.00116  -0.00406   0.06652   0.06190   0.03398
   D37       -0.04560   0.00160  -0.00690   0.09495   0.08862   0.04302
   D38        3.08693   0.00122  -0.00929   0.08460   0.07647  -3.11978
   D39        0.04403  -0.00162   0.00660  -0.09665  -0.09038  -0.04634
         Item               Value     Threshold  Converged?
 Maximum Force            0.014371     0.000450     NO 
 RMS     Force            0.003626     0.000300     NO 
 Maximum Displacement     0.141611     0.001800     NO 
 RMS     Displacement     0.033848     0.001200     NO 
 Predicted change in Energy=-2.060870D-03
 GradGradGradGradGradGradGradGradGradGradGradGradGradGradGradGradGradGrad

                          Input orientation:                          
 ---------------------------------------------------------------------
 Center     Atomic      Atomic             Coordinates (Angstroms)
 Number     Number       Type             X           Y           Z
 ---------------------------------------------------------------------
      1          6           0       -1.371977   -0.019018   -0.228116
      2          6           0       -2.511778    0.739436   -0.106164
      3          6           0       -2.496066    2.170102    0.137524
      4          6           0       -1.287400    2.828904    0.254374
      5          6           0       -0.103964    2.059993    0.136326
      6          6           0       -0.115530    0.647066   -0.106896
      7          1           0       -1.400024   -1.084618   -0.420388
      8          1           0       -3.480148    0.257424   -0.201989
      9          1           0       -1.224421    3.897397    0.429334
     10          6           0       -3.808739    2.904588    0.283433
     11          1           0       -3.702034    3.972429    0.067188
     12          1           0       -4.570138    2.496970   -0.390138
     13          1           0       -4.200223    2.815327    1.306442
     14          7           0        1.180771    2.462696    0.197745
     15          7           0        1.115284    0.121601   -0.214511
     16          8           0        1.996478    1.234042    0.012886
     17          8           0        1.745738    3.565821    0.387716
 ---------------------------------------------------------------------
                    Distance matrix (angstroms):
                    1          2          3          4          5
     1  C    0.000000
     2  C    1.374508   0.000000
     3  C    2.487873   1.451356   0.000000
     4  C    2.889743   2.448462   1.381503   0.000000
     5  C    2.462309   2.756853   2.394635   1.416220   0.000000
     6  C    1.427243   2.398028   2.836606   2.502841   1.433756
     7  H    1.083170   2.159145   3.479335   3.972863   3.446488
     8  H    2.126378   1.085936   2.177618   3.410120   3.842177
[...]
 ! D2    D(6,1,2,8)           -179.9978         -DE/DX =    0.0                 !
 ! D3    D(7,1,2,3)            180.0073         -DE/DX =    0.0                 !
 ! D4    D(7,1,2,8)             -0.0042         -DE/DX =    0.0                 !
 ! D5    D(2,1,6,5)             -0.0027         -DE/DX =    0.0                 !
 ! D6    D(2,1,6,15)          -180.0033         -DE/DX =    0.0                 !
 ! D7    D(7,1,6,5)           -179.9965         -DE/DX =    0.0                 !
 ! D8    D(7,1,6,15)             0.0029         -DE/DX =    0.0                 !
 ! D9    D(1,2,3,4)             -0.0139         -DE/DX =    0.0                 !
 ! D10   D(1,2,3,10)           180.0095         -DE/DX =    0.0                 !
 ! D11   D(8,2,3,4)           -180.0026         -DE/DX =    0.0                 !
 ! D12   D(8,2,3,10)             0.0208         -DE/DX =    0.0                 !
 ! D13   D(2,3,4,5)              0.0026         -DE/DX =    0.0                 !
 ! D14   D(2,3,4,9)            180.0082         -DE/DX =    0.0                 !
 ! D15   D(10,3,4,5)          -180.0216         -DE/DX =    0.0                 !
 ! D16   D(10,3,4,9)            -0.016          -DE/DX =    0.0                 !
 ! D17   D(2,3,10,11)         -179.9836         -DE/DX =    0.0                 !
 ! D18   D(2,3,10,12)          -59.5015         -DE/DX =    0.0                 !
 ! D19   D(2,3,10,13)           59.5396         -DE/DX =    0.0                 !
 ! D20   D(4,3,10,11)            0.0403         -DE/DX =    0.0                 !
 ! D21   D(4,3,10,12)          120.5224         -DE/DX =    0.0                 !
 ! D22   D(4,3,10,13)         -120.4365         -DE/DX =    0.0                 !
 ! D23   D(3,4,5,6)              0.0081         -DE/DX =    0.0                 !
 ! D24   D(3,4,5,14)          -180.0078         -DE/DX =    0.0                 !
 ! D25   D(9,4,5,6)           -179.9974         -DE/DX =    0.0                 !
 ! D26   D(9,4,5,14)            -0.0133         -DE/DX =    0.0                 !
 ! D27   D(4,5,6,1)             -0.0082         -DE/DX =    0.0                 !
 ! D28   D(4,5,6,15)          -180.0077         -DE/DX =    0.0                 !
 ! D29   D(14,5,6,1)           180.0049         -DE/DX =    0.0                 !
 ! D30   D(14,5,6,15)            0.0054         -DE/DX =    0.0                 !
 ! D31   D(4,5,14,16)          180.0076         -DE/DX =    0.0                 !
 ! D32   D(4,5,14,17)            0.0281         -DE/DX =    0.0                 !
 ! D33   D(6,5,14,16)           -0.0066         -DE/DX =    0.0                 !
 ! D34   D(6,5,14,17)         -179.9861         -DE/DX =    0.0                 !
 ! D35   D(1,6,15,16)          179.9994         -DE/DX =    0.0                 !
 ! D36   D(5,6,15,16)           -0.0012         -DE/DX =    0.0                 !
 ! D37   D(5,14,16,15)           0.006          -DE/DX =    0.0                 !
 ! D38   D(17,14,16,15)        179.9897         -DE/DX =    0.0                 !
 ! D39   D(6,15,16,14)          -0.0029         -DE/DX =    0.0                 !
 --------------------------------------------------------------------------------
 GradGradGradGradGradGradGradGradGradGradGradGradGradGradGradGradGradGrad

                          Input orientation:                          
 ---------------------------------------------------------------------
 Center     Atomic      Atomic             Coordinates (Angstroms)
 Number     Number       Type             X           Y           Z
 ---------------------------------------------------------------------
      1          6           0       -1.375423   -0.019756   -0.173489
      2          6           0       -2.512790    0.733584   -0.051411
      3          6           0       -2.492784    2.170653    0.153222
      4          6           0       -1.289513    2.834955    0.232709
      5          6           0       -0.100300    2.070578    0.108628
      6          6           0       -0.117693    0.652639   -0.093540
      7          1           0       -1.401553   -1.091500   -0.326073
      8          1           0       -3.481358    0.246466   -0.108561
      9          1           0       -1.230717    3.906183    0.384826
     10          6           0       -3.807181    2.901946    0.274663
     11          1           0       -3.656995    3.974413    0.425316
     12          1           0       -4.418496    2.769751   -0.627262
     13          1           0       -4.395388    2.521200    1.119502
     14          7           0        1.173109    2.491158    0.152324
     15          7           0        1.109567    0.125411   -0.184420
     16          8           0        2.010489    1.194534   -0.043318
     17          8           0        1.752855    3.587946    0.301650
 ---------------------------------------------------------------------
                    Distance matrix (angstroms):
                    1          2          3          4          5
     1  C    0.000000
     2  C    1.369681   0.000000
     3  C    2.480550   1.451703   0.000000
     4  C    2.884745   2.448038   1.376764   0.000000
     5  C    2.464757   2.762838   2.394992   1.419118   0.000000
     6  C    1.428423   2.396835   2.829544   2.498420   1.432385
     7  H    1.082867   2.154349   3.473061   3.967599   3.446877
     8  H    2.123688   1.085668   2.179060   3.408948   3.847871
     9  H    3.968080   3.449551   2.158361   1.083571   2.173379
    10  C    3.827614   2.546285   1.509032   2.518909   3.802592
    11  H    4.638699   3.469791   2.164018   2.634471   4.046599
    12  H    4.153017   2.847683   2.162508   3.245665   4.435899
    13  H    4.153127   2.847943   2.162517   3.245197   4.435392
    14  N    3.592473   4.088572   3.679877   2.487803   1.341778
    15  N    2.489251   3.675464   4.156195   3.642967   2.309401
    16  O    3.599423   4.546712   4.612039   3.695562   2.290408
    17  O    4.798687   5.144682   4.478416   3.134924   2.402883
                    6          7          8          9         10
     6  C    0.000000
     7  H    2.178162   0.000000
     8  H    3.388134   2.482550   0.000000
     9  H    3.471774   5.050882   4.324621   0.000000
    10  C    4.336737   4.700590   2.702702   2.767453   0.000000
    11  H    4.881605   5.595989   3.770075   2.427575   1.093361
    12  H    4.823270   4.909371   2.741212   3.532384   1.097566
    13  H    4.823035   4.909617   2.741897   3.531723   1.097592
    14  N    2.259817   4.437701   5.174047   2.799059   4.998700
    15  N    1.338804   2.794041   4.593148   4.482769   5.665185
    16  O    2.196663   4.116786   5.573461   4.247560   6.071380
    17  O    3.503020   5.678163   6.223403   3.001649   5.602261
                   11         12         13         14         15
    11  H    0.000000
    12  H    1.771727   0.000000
    13  H    1.771707   1.764510   0.000000
    14  N    5.060087   5.652559   5.651946   0.000000
    15  N    6.156843   6.143951   6.143659   2.390438   0.000000
    16  O    6.329907   6.644859   6.644354   1.555865   1.405202
    17  O    5.425047   6.294275   6.293466   1.249539   3.555169
                   16         17
    16  O    0.000000
    17  O    2.431830   0.000000
 Stoichiometry    C7H6N2O2
 Framework group  C1[X(C7H6N2O2)]
 Deg. of freedom    45
 Full point group                 C1      NOp   1
 Largest Abelian subgroup         C1      NOp   1
 Largest concise Abelian subgroup C1      NOp   1
                         Standard orientation:                         
 ---------------------------------------------------------------------
 Center     Atomic      Atomic             Coordinates (Angstroms)
 Number     Number       Type             X           Y           Z
 ---------------------------------------------------------------------
      1          6           0        0.726856    1.835814   -0.000016
      2          6           0        1.905210    1.137597    0.000034
      3          6           0        1.966420   -0.312814   -0.000185
      4          6           0        0.802347   -1.047942   -0.000166
      5          6           0       -0.428400   -0.341434    0.000015
      6          6           0       -0.491144    1.089576    0.000004
      7          1           0        0.692398    2.918133    0.000033
      8          1           0        2.844916    1.681314    0.000056
      9          1           0        0.804155   -2.131512   -0.000194
     10          6           0        3.320320   -0.979248    0.000113
     11          1           0        3.230924   -2.068948   -0.000384
     12          1           0        3.905162   -0.687773   -0.881733
     13          1           0        3.904374   -0.688571    0.882777
     14          7           0       -1.676285   -0.834536   -0.000076
     15          7           0       -1.746491    1.554870    0.000026
     16          8           0       -2.585761    0.427831    0.000025
     17          8           0       -2.193258   -1.972115    0.000100
 ---------------------------------------------------------------------
 Rotational constants (GHZ):      2.2077487      0.9055742      0.6447400

 **********************************************************************

            Population analysis using the SCF density.

 **********************************************************************

 Orbital symmetries:
       Occupied  (A) (A) (A) (A) (A) (A) (A) (A) (A) (A) (A) (A)
                 (A) (A) (A) (A) (A) (A) (A) (A) (A) (A) (A) (A)
                 (A) (A) (A) (A) (A) (A) (A) (A) (A) (A) (A) (A)
                 (A) (A) (A)
       Virtual   (A) (A) (A) (A) (A) (A) (A) (A) (A) (A) (A) (A)
                 (A) (A) (A) (A) (A) (A) (A) (A) (A) (A) (A) (A)
                 (A) (A) (A) (A) (A) (A) (A) (A) (A) (A) (A) (A)
                 (A) (A) (A) (A) (A) (A) (A) (A) (A) (A) (A) (A)
                 (A) (A) (A) (A) (A) (A) (A) (A) (A) (A) (A) (A)
                 (A) (A) (A) (A) (A) (A) (A) (A) (A) (A) (A) (A)
 The electronic state is 1-A.
 Alpha  occ. eigenvalues --  -19.26581 -19.19450 -14.53268 -14.41780 -10.27454
 Alpha  occ. eigenvalues --  -10.26428 -10.23755 -10.22946 -10.22905 -10.22721
 Alpha  occ. eigenvalues --  -10.20444  -1.19928  -1.12002  -0.93021  -0.88768
 Alpha  occ. eigenvalues --   -0.85642  -0.79045  -0.74653  -0.68218  -0.64535
 Alpha  occ. eigenvalues --   -0.62765  -0.55658  -0.53719  -0.52511  -0.51225
 Alpha  occ. eigenvalues --   -0.47954  -0.47703  -0.44747  -0.43975  -0.42260
 Alpha  occ. eigenvalues --   -0.40898  -0.40413  -0.38880  -0.38378  -0.36531
 Alpha  occ. eigenvalues --   -0.30489  -0.29743  -0.29117  -0.22805
 Alpha virt. eigenvalues --   -0.10436  -0.02472  -0.01320  -0.00634   0.07715
 Alpha virt. eigenvalues --    0.08344   0.10452   0.11589   0.12195   0.15402
 Alpha virt. eigenvalues --    0.15745   0.17161   0.19130   0.20409   0.24752
 Alpha virt. eigenvalues --    0.25833   0.30311   0.31757   0.34837   0.38147
 Alpha virt. eigenvalues --    0.44003   0.48004   0.48369   0.53064   0.53236
 Alpha virt. eigenvalues --    0.54395   0.55719   0.56475   0.59380   0.61124
 Alpha virt. eigenvalues --    0.61624   0.63242   0.63964   0.65306   0.67692
 Alpha virt. eigenvalues --    0.69211   0.70865   0.73227   0.74614   0.74861
 Alpha virt. eigenvalues --    0.75961   0.79815   0.82188   0.82211   0.84259
 Alpha virt. eigenvalues --    0.88032   0.88404   0.90632   0.93959   0.94412
 Alpha virt. eigenvalues --    0.94539   0.95805   0.96718   1.00501   1.01446
 Alpha virt. eigenvalues --    1.03651   1.06048   1.09946   1.12846   1.16721
 Alpha virt. eigenvalues --    1.19511   1.19746   1.31115   1.34746   1.40362
 Alpha virt. eigenvalues --    1.43710   1.47029   1.55118   1.71332   1.77057
 Alpha virt. eigenvalues --    1.91859   1.95842
          Condensed to atoms (all electrons):
               1          2          3          4          5          6
     1  C    4.941537   0.540885  -0.037933  -0.043035  -0.056737   0.420400
     2  C    0.540885   5.006188   0.450161  -0.053512  -0.038535  -0.031161
     3  C   -0.037933   0.450161   4.844101   0.524218   0.006977  -0.029122
     4  C   -0.043035  -0.053512   0.524218   5.065177   0.312541  -0.016614
     5  C   -0.056737  -0.038535   0.006977   0.312541   5.562822   0.220709
     6  C    0.420400  -0.031161  -0.029122  -0.016614   0.220709   5.168221
     7  H    0.349773  -0.032538   0.003287   0.000166   0.005658  -0.030160
     8  H   -0.029050   0.357430  -0.042451   0.004654   0.000699   0.004085
     9  H    0.000462   0.004110  -0.026948   0.350927  -0.036434   0.003486
    10  C    0.005065  -0.050055   0.314555  -0.033859   0.006193   0.000886
    11  H   -0.000188   0.003447  -0.036871  -0.001760   0.000569  -0.000002
    12  H    0.000106  -0.001825  -0.033873  -0.000389  -0.000227   0.000001
    13  H    0.000106  -0.001822  -0.033884  -0.000403  -0.000227   0.000001
    14  N    0.010041   0.000040   0.007873  -0.060056  -0.145884   0.013822
    15  N   -0.058733   0.005663  -0.000796   0.011411  -0.017255   0.224894
    16  O    0.006160  -0.000091  -0.000066   0.004669  -0.150618  -0.051557
    17  O   -0.000008  -0.000005   0.000348   0.006036  -0.092232   0.006080
               7          8          9         10         11         12
     1  C    0.349773  -0.029050   0.000462   0.005065  -0.000188   0.000106
     2  C   -0.032538   0.357430   0.004110  -0.050055   0.003447  -0.001825
     3  C    0.003287  -0.042451  -0.026948   0.314555  -0.036871  -0.033873
     4  C    0.000166   0.004654   0.350927  -0.033859  -0.001760  -0.000389
     5  C    0.005658   0.000699  -0.036434   0.006193   0.000569  -0.000227
     6  C   -0.030160   0.004085   0.003486   0.000886  -0.000002   0.000001
     7  H    0.541141  -0.003816   0.000013  -0.000119   0.000002   0.000000
     8  H   -0.003816   0.565877  -0.000138  -0.004389   0.000069   0.001471
     9  H    0.000013  -0.000138   0.534615  -0.005987   0.004296   0.000124
    10  C   -0.000119  -0.004389  -0.005987   5.149539   0.371650   0.367247
    11  H    0.000002   0.000069   0.004296   0.371650   0.555257  -0.027342
    12  H    0.000000   0.001471   0.000124   0.367247  -0.027342   0.563211
    13  H    0.000000   0.001465   0.000124   0.367273  -0.027344  -0.033127
    14  N   -0.000052   0.000000  -0.005961  -0.000148   0.000002   0.000002
    15  N   -0.001894  -0.000094  -0.000145  -0.000002   0.000000   0.000000
    16  O   -0.000110   0.000001   0.000075   0.000000   0.000000   0.000000
    17  O    0.000000   0.000000   0.004183  -0.000001   0.000000   0.000000
              13         14         15         16         17
     1  C    0.000106   0.010041  -0.058733   0.006160  -0.000008
     2  C   -0.001822   0.000040   0.005663  -0.000091  -0.000005
     3  C   -0.033884   0.007873  -0.000796  -0.000066   0.000348
     4  C   -0.000403  -0.060056   0.011411   0.004669   0.006036
     5  C   -0.000227  -0.145884  -0.017255  -0.150618  -0.092232
     6  C    0.000001   0.013822   0.224894  -0.051557   0.006080
     7  H    0.000000  -0.000052  -0.001894  -0.000110   0.000000
     8  H    0.001465   0.000000  -0.000094   0.000001   0.000000
     9  H    0.000124  -0.005961  -0.000145   0.000075   0.004183
    10  C    0.367273  -0.000148  -0.000002   0.000000  -0.000001
    11  H   -0.027344   0.000002   0.000000   0.000000   0.000000
    12  H   -0.033127   0.000002   0.000000   0.000000   0.000000
    13  H    0.563184   0.000002   0.000000   0.000000   0.000000
    14  N    0.000002   7.188753  -0.093199   0.021043   0.173070
    15  N    0.000000  -0.093199   7.018494   0.075453   0.002817
    16  O    0.000000   0.021043   0.075453   8.343151  -0.045994
    17  O    0.000000   0.173070   0.002817  -0.045994   8.284343
 Mulliken charges:
               1
     1  C   -0.048852
     2  C   -0.158381
     3  C    0.090424
     4  C   -0.070171
     5  C    0.421982
     6  C    0.096033
     7  H    0.168649
     8  H    0.144187
     9  H    0.173200
    10  C   -0.487847
    11  H    0.158215
    12  H    0.164623
    13  H    0.164653
    14  N   -0.109346
    15  N   -0.166615
    16  O   -0.202116
    17  O   -0.338639
 Sum of Mulliken charges =   0.00000
 Mulliken charges with hydrogens summed into heavy atoms:
               1
     1  C    0.119798
     2  C   -0.014194
     3  C    0.090424
     4  C    0.103029
     5  C    0.421982
     6  C    0.096033
    10  C   -0.000355
    14  N   -0.109346
    15  N   -0.166615
    16  O   -0.202116
    17  O   -0.338639
 Electronic spatial extent (au):  <R**2>=           1678.3683
 Charge=              0.0000 electrons
 Dipole moment (field-independent basis, Debye):
    X=              6.1168    Y=              0.5494    Z=              0.0001  Tot=              6.1415
 Quadrupole moment (field-independent basis, Debye-Ang):
   XX=            -66.3490   YY=            -63.8616   ZZ=            -63.6058
   XY=             -0.9066   XZ=              0.0012   YZ=              0.0003
 Traceless Quadrupole moment (field-independent basis, Debye-Ang):
   XX=             -1.7436   YY=              0.7439   ZZ=              0.9997
   XY=             -0.9066   XZ=              0.0012   YZ=              0.0003
 Octapole moment (field-independent basis, Debye-Ang**2):
  XXX=             36.4422  YYY=              2.8113  ZZZ=              0.0025  XYY=             20.4896
  XXY=              0.4976  XXZ=              0.0018  XZZ=             -8.5478  YZZ=             -3.5962
  YYZ=             -0.0008  XYZ=             -0.0013
 Hexadecapole moment (field-independent basis, Debye-Ang**3):
 XXXX=          -1452.7296 YYYY=           -615.7273 ZZZZ=            -66.2337 XXXY=              4.6039
 XXXZ=              0.0058 YYYX=              6.5879 YYYZ=              0.0043 ZZZX=              0.0056
 ZZZY=             -0.0024 XXYY=           -377.8574 XXZZ=           -251.4785 YYZZ=           -121.5835
 XXYZ=             -0.0031 YYXZ=              0.0001 ZZXY=              3.5146
 N-N= 5.755480375434D+02 E-N=-2.386842571270D+03  KE= 5.271544744745D+02
 1|1|UNPC-NAAC4|FOpt|RB3LYP|6-31G|C7H6N2O2|123|25-Feb-2025|0||# opt b3l
 yp/6-31g geom=connectivity||Title Card Required||0,1|C,-1.3754232013,-
 0.0197561441,-0.173488524|C,-2.5127896724,0.7335840683,-0.0514106333|C
 ,-2.492784456,2.1706526487,0.153222355|C,-1.2895125641,2.8349548494,0.
 232709366|C,-0.1002999615,2.0705781276,0.1086277926|C,-0.1176925313,0.
 6526386026,-0.093539807|H,-1.4015527915,-1.0915003228,-0.326073328|H,-
 3.4813582332,0.2464660872,-0.1085607184|H,-1.230717128,3.9061834443,0.
 3848257793|C,-3.8071811726,2.9019461893,0.2746628648|H,-3.6569954236,3
 .9744132434,0.4253164041|H,-4.4184963741,2.7697506036,-0.6272624052|H,
 -4.3953877751,2.5211998136,1.1195017515|N,1.1731088579,2.4911580945,0.
 152323893|N,1.1095674233,0.1254107472,-0.1844195183|O,2.0104886755,1.1
 945337634,-0.0433178917|O,1.7528552484,3.5879455437,0.3016497996||Vers
 ion=EM64W-G09RevD.01|State=1-A|HF=-529.9896508|RMSD=7.963e-009|RMSF=1.
 334e-005|Dipole=-2.4146749,-0.0847204,0.0187392|Quadrupole=-1.3654731,
 0.6229886,0.7424845,-0.5644742,-0.0545563,-0.0101472|PG=C01 [X(C7H6N2O
 2)]||@


 TRUTH, IN SCIENCE, CAN BE DEFINED AS THE WORKING HYPOTHESIS 
 BEST FITTED TO OPEN THE WAY TO THE NEXT BETTER ONE.

                              -- KONRAD LORENZ
 Job cpu time:       0 days  0 hours  7 minutes  1.0 seconds.
 File lengths (MBytes):  RWF=      8 Int=      0 D2E=      0 Chk=      2 Scr=      1
 Normal termination of Gaussian 09 at Tue Feb 25 14:47:07 2025.
