 Entering Gaussian System, Link 0=C:\G09W\g09.exe
 Input=C:\Users\123\Downloads\leemol\christy\TDDFT\mo45.gjf
 Output=C:\Users\123\Downloads\leemol\christy\TDDFT\mo45.log
 Initial command:
 C:/G09W\l1.exe ".\Gau-3684.inp" "C:\Users\123\Downloads\leemol\christy\TDDFT\mo45.log" /scrdir=".\"
 Entering Link 1 = C:/G09W\l1.exe PID=      4356.
  
 Copyright (c) 1988,1990,1992,1993,1995,1998,2003,2009,2013,
            Gaussian, Inc.  All Rights Reserved.
  
 This is part of the Gaussian(R) 09 program.  It is based on
 the Gaussian(R) 03 system (copyright 2003, Gaussian, Inc.),
 the Gaussian(R) 98 system (copyright 1998, Gaussian, Inc.),
 the Gaussian(R) 94 system (copyright 1995, Gaussian, Inc.),
 the Gaussian 92(TM) system (copyright 1992, Gaussian, Inc.),
 the Gaussian 90(TM) system (copyright 1990, Gaussian, Inc.),
 the Gaussian 88(TM) system (copyright 1988, Gaussian, Inc.),
 the Gaussian 86(TM) system (copyright 1986, Carnegie Mellon
 University), and the Gaussian 82(TM) system (copyright 1983,
 Carnegie Mellon University). Gaussian is a federally registered
 trademark of Gaussian, Inc.
  
 This software contains proprietary and confidential information,
 including trade secrets, belonging to Gaussian, Inc.
  
 This software is provided under written license and may be
 used, copied, transmitted, or stored only in accord with that
 written license.
  
 The following legend is applicable only to US Government
 contracts under FAR:
  
                    RESTRICTED RIGHTS LEGEND
  
 Use, reproduction and disclosure by the US Government is
 subject to restrictions as set forth in subparagraphs (a)
 and (c) of the Commercial Computer Software - Restricted
 Rights clause in FAR 52.227-19.
  
 Gaussian, Inc.
 340 Quinnipiac St., Bldg. 40, Wallingford CT 06492
  
  
 ---------------------------------------------------------------
 Warning -- This program may not be used in any manner that
 competes with the business of Gaussian, Inc. or will provide
 assistance to any competitor of Gaussian, Inc.  The licensee
 of this program is prohibited from giving any competitor of
 Gaussian, Inc. access to this program.  By using this program,
 the user acknowledges that Gaussian, Inc. is engaged in the
 business of creating and licensing software in the field of
 computational chemistry and represents and warrants to the
 licensee that it is not a competitor of Gaussian, Inc. and that
 it will not use this program in any manner prohibited above.
 ---------------------------------------------------------------
  

 Cite this work as:
 Gaussian 09, Revision D.01,
 M. J. Frisch, G. W. Trucks, H. B. Schlegel, G. E. Scuseria, 
 M. A. Robb, J. R. Cheeseman, G. Scalmani, V. Barone, B. Mennucci, 
 G. A. Petersson, H. Nakatsuji, M. Caricato, X. Li, H. P. Hratchian, 
 A. F. Izmaylov, J. Bloino, G. Zheng, J. L. Sonnenberg, M. Hada, 
 M. Ehara, K. Toyota, R. Fukuda, J. Hasegawa, M. Ishida, T. Nakajima, 
 Y. Honda, O. Kitao, H. Nakai, T. Vreven, J. A. Montgomery, Jr., 
 J. E. Peralta, F. Ogliaro, M. Bearpark, J. J. Heyd, E. Brothers, 
 K. N. Kudin, V. N. Staroverov, T. Keith, R. Kobayashi, J. Normand, 
 K. Raghavachari, A. Rendell, J. C. Burant, S. S. Iyengar, J. Tomasi, 
 M. Cossi, N. Rega, J. M. Millam, M. Klene, J. E. Knox, J. B. Cross, 
 V. Bakken, C. Adamo, J. Jaramillo, R. Gomperts, R. E. Stratmann, 
 O. Yazyev, A. J. Austin, R. Cammi, C. Pomelli, J. W. Ochterski, 
 R. L. Martin, K. Morokuma, V. G. Zakrzewski, G. A. Voth, 
 P. Salvador, J. J. Dannenberg, S. Dapprich, A. D. Daniels, 
 O. Farkas, J. B. Foresman, J. V. Ortiz, J. Cioslowski, 
 and D. J. Fox, Gaussian, Inc., Wallingford CT, 2013.
 
 ******************************************
 Gaussian 09:  EM64W-G09RevD.01 13-Apr-2013
                06-Mar-2025 
 ******************************************
 %chk=C:\Users\123\Downloads\leemol\christy\TDDFT\mo45.chk
 -----------------------------------
 # opt b3lyp/6-31g geom=connectivity
 -----------------------------------
 1/14=-1,18=20,19=15,26=3,38=1,57=2/1,3;
 2/9=110,12=2,17=6,18=5,40=1/2;
 3/5=1,6=6,11=2,16=1,25=1,30=1,71=1,74=-5/1,2,3;
 4//1;
 5/5=2,38=5/2;
 6/7=2,8=2,9=2,10=2,28=1/1;
 7//1,2,3,16;
 1/14=-1,18=20,19=15,26=3/3(2);
 2/9=110/2;
 99//99;
 2/9=110/2;
 3/5=1,6=6,11=2,16=1,25=1,30=1,71=1,74=-5/1,2,3;
 4/5=5,16=3,69=1/1;
 5/5=2,38=5/2;
 7//1,2,3,16;
 1/14=-1,18=20,19=15,26=3/3(-5);
 2/9=110/2;
 6/7=2,8=2,9=2,10=2,19=2,28=1/1;
 99/9=1/99;
 -------------------
 Title Card Required
 -------------------
 Symbolic Z-matrix:
 Charge =  0 Multiplicity = 2
 C                    -3.34825  -0.12772   0.41539 
 C                    -1.85236   0.1417    0.21006 
 C                    -1.34095   1.35236   0.54241 
 C                    -3.48077   2.20774   1.28269 
 C                    -4.12065   0.85361   0.92467 
 C                    -3.95703  -1.49343   0.04685 
 C                    -3.57497  -3.70516  -0.82629 
 C                    -5.07095  -3.97263  -0.62056 
 C                    -5.8413   -2.98936  -0.11113 
 H                    -0.29786   1.54409   0.40062 
 H                    -4.08802   2.99042   1.6871 
 H                    -5.16729   0.6929    1.07835 
 H                    -2.94026  -4.46688  -1.22856 
 H                    -5.49553  -4.92094  -0.87618 
 N                    -2.20983   2.40893   1.09824 
 N                    -3.08799  -2.54962  -0.50873 
 N                    -5.22789  -1.69733   0.23011 
 C                    -7.34801  -3.21774   0.1108 
 N                    -7.84974  -4.17759  -0.88311 
 N                    -9.21948  -4.38521  -0.68138 
 C                    -9.75237  -5.5245   -0.98379 
 C                    -11.25907  -5.75294  -0.76198 
 C                    -11.51372  -7.24157  -0.4609 
 N                    -11.70329  -8.34999  -0.2368 
 C                    -1.62705   3.71198   1.44941 
 H                    -0.60614   3.57918   1.74096 
 H                    -1.67412   4.36374   0.60213 
 H                    -2.1767    4.14151   2.26077 
 C                    -0.93864  -0.95436  -0.36906 
 H                    -0.53857  -1.54381   0.42931 
 H                    -1.5053   -1.58093  -1.02572 
 H                    -0.13719  -0.49989  -0.91315 
 C                    -7.13408  -5.45328  -0.7371 
 H                    -6.0872   -5.29463  -0.89128 
 H                    -7.29484  -5.84184   0.2468 
 H                    -7.49929  -6.15195  -1.46056 
 H                    -11.79618  -5.47032  -1.6432 
 H                    -11.59192  -5.15995   0.06414 
 H                    -9.14627  -6.30815  -1.38805 
 H                    -7.86895  -2.28917   0.00454 
 H                    -7.50874  -3.60631   1.09471 
 

 GradGradGradGradGradGradGradGradGradGradGradGradGradGradGradGradGradGrad
 Berny optimization.
 Initialization pass.
                           ----------------------------
                           !    Initial Parameters    !
                           ! (Angstroms and Degrees)  !
 --------------------------                            --------------------------
 ! Name  Definition              Value          Derivative Info.                !
 --------------------------------------------------------------------------------
 ! R1    R(1,2)                  1.5338         estimate D2E/DX2                !
 ! R2    R(1,5)                  1.3487         estimate D2E/DX2                !
 ! R3    R(1,6)                  1.54           estimate D2E/DX2                !
 ! R4    R(2,3)                  1.3556         estimate D2E/DX2                !
 ! R5    R(2,29)                 1.54           estimate D2E/DX2                !
 ! R6    R(3,10)                 1.07           estimate D2E/DX2                !
 ! R7    R(3,15)                 1.4766         estimate D2E/DX2                !
 ! R8    R(4,5)                  1.5399         estimate D2E/DX2                !
 ! R9    R(4,11)                 1.07           estimate D2E/DX2                !
 ! R10   R(4,15)                 1.2999         estimate D2E/DX2                !
 ! R11   R(5,12)                 1.07           estimate D2E/DX2                !
 ! R12   R(6,16)                 1.4763         estimate D2E/DX2                !
 ! R13   R(6,17)                 1.3001         estimate D2E/DX2                !
 ! R14   R(7,8)                  1.5336         estimate D2E/DX2                !
 ! R15   R(7,13)                 1.07           estimate D2E/DX2                !
 ! R16   R(7,16)                 1.2935         estimate D2E/DX2                !
 ! R17   R(8,9)                  1.349          estimate D2E/DX2                !
 ! R18   R(8,14)                 1.07           estimate D2E/DX2                !
 ! R19   R(9,17)                 1.4704         estimate D2E/DX2                !
 ! R20   R(9,18)                 1.54           estimate D2E/DX2                !
 ! R21   R(15,25)                1.47           estimate D2E/DX2                !
 ! R22   R(18,19)                1.47           estimate D2E/DX2                !
 ! R23   R(18,40)                1.07           estimate D2E/DX2                !
 ! R24   R(18,41)                1.07           estimate D2E/DX2                !
 ! R25   R(19,20)                1.4            estimate D2E/DX2                !
 ! R26   R(19,33)                1.47           estimate D2E/DX2                !
 ! R27   R(20,21)                1.2936         estimate D2E/DX2                !
 ! R28   R(21,22)                1.54           estimate D2E/DX2                !
 ! R29   R(21,39)                1.07           estimate D2E/DX2                !
 ! R30   R(22,23)                1.54           estimate D2E/DX2                !
 ! R31   R(22,37)                1.07           estimate D2E/DX2                !
 ! R32   R(22,38)                1.07           estimate D2E/DX2                !
 ! R33   R(23,24)                1.1466         estimate D2E/DX2                !
 ! R34   R(25,26)                1.07           estimate D2E/DX2                !
 ! R35   R(25,27)                1.07           estimate D2E/DX2                !
 ! R36   R(25,28)                1.07           estimate D2E/DX2                !
 ! R37   R(29,30)                1.07           estimate D2E/DX2                !
 ! R38   R(29,31)                1.07           estimate D2E/DX2                !
 ! R39   R(29,32)                1.07           estimate D2E/DX2                !
 ! R40   R(33,34)                1.07           estimate D2E/DX2                !
 ! R41   R(33,35)                1.07           estimate D2E/DX2                !
 ! R42   R(33,36)                1.07           estimate D2E/DX2                !
 ! A1    A(2,1,5)              118.7704         estimate D2E/DX2                !
 ! A2    A(2,1,6)              120.6165         estimate D2E/DX2                !
 ! A3    A(5,1,6)              120.6131         estimate D2E/DX2                !
 ! A4    A(1,2,3)              119.4715         estimate D2E/DX2                !
 ! A5    A(1,2,29)             120.2645         estimate D2E/DX2                !
 ! A6    A(3,2,29)             120.2639         estimate D2E/DX2                !
 ! A7    A(2,3,10)             119.69           estimate D2E/DX2                !
 ! A8    A(2,3,15)             120.62           estimate D2E/DX2                !
 ! A9    A(10,3,15)            119.69           estimate D2E/DX2                !
 ! A10   A(5,4,11)             119.6883         estimate D2E/DX2                !
 ! A11   A(5,4,15)             120.6232         estimate D2E/DX2                !
 ! A12   A(11,4,15)            119.6885         estimate D2E/DX2                !
 ! A13   A(1,5,4)              119.3175         estimate D2E/DX2                !
 ! A14   A(1,5,12)             120.3412         estimate D2E/DX2                !
 ! A15   A(4,5,12)             120.3413         estimate D2E/DX2                !
 ! A16   A(1,6,16)             119.4608         estimate D2E/DX2                !
 ! A17   A(1,6,17)             119.4575         estimate D2E/DX2                !
 ! A18   A(16,6,17)            121.0817         estimate D2E/DX2                !
 ! A19   A(8,7,13)             120.3261         estimate D2E/DX2                !
 ! A20   A(8,7,16)             119.3479         estimate D2E/DX2                !
 ! A21   A(13,7,16)            120.326          estimate D2E/DX2                !
 ! A22   A(7,8,9)              118.724          estimate D2E/DX2                !
 ! A23   A(7,8,14)             120.6379         estimate D2E/DX2                !
 ! A24   A(9,8,14)             120.638          estimate D2E/DX2                !
 ! A25   A(8,9,17)             119.3332         estimate D2E/DX2                !
 ! A26   A(8,9,18)             120.3342         estimate D2E/DX2                !
 ! A27   A(17,9,18)            120.3326         estimate D2E/DX2                !
 ! A28   A(3,15,4)             121.1973         estimate D2E/DX2                !
 ! A29   A(3,15,25)            119.4019         estimate D2E/DX2                !
 ! A30   A(4,15,25)            119.4008         estimate D2E/DX2                !
 ! A31   A(6,16,7)             120.6564         estimate D2E/DX2                !
 ! A32   A(6,17,9)             120.8567         estimate D2E/DX2                !
 ! A33   A(9,18,19)            109.4711         estimate D2E/DX2                !
 ! A34   A(9,18,40)            109.4711         estimate D2E/DX2                !
 ! A35   A(9,18,41)            109.4714         estimate D2E/DX2                !
 ! A36   A(19,18,40)           109.4713         estimate D2E/DX2                !
 ! A37   A(19,18,41)           109.4713         estimate D2E/DX2                !
 ! A38   A(40,18,41)           109.4711         estimate D2E/DX2                !
 ! A39   A(18,19,20)           109.472          estimate D2E/DX2                !
 ! A40   A(18,19,33)           109.4714         estimate D2E/DX2                !
 ! A41   A(20,19,33)           109.4699         estimate D2E/DX2                !
 ! A42   A(19,20,21)           119.9977         estimate D2E/DX2                !
 ! A43   A(20,21,22)           120.0009         estimate D2E/DX2                !
 ! A44   A(20,21,39)           120.0001         estimate D2E/DX2                !
 ! A45   A(22,21,39)           119.999          estimate D2E/DX2                !
 ! A46   A(21,22,23)           109.4715         estimate D2E/DX2                !
 ! A47   A(21,22,37)           109.4706         estimate D2E/DX2                !
 ! A48   A(21,22,38)           109.4719         estimate D2E/DX2                !
 ! A49   A(23,22,37)           109.4713         estimate D2E/DX2                !
 ! A50   A(23,22,38)           109.4708         estimate D2E/DX2                !
 ! A51   A(37,22,38)           109.4713         estimate D2E/DX2                !
 ! A52   A(15,25,26)           109.4712         estimate D2E/DX2                !
 ! A53   A(15,25,27)           109.4712         estimate D2E/DX2                !
 ! A54   A(15,25,28)           109.4711         estimate D2E/DX2                !
 ! A55   A(26,25,27)           109.4713         estimate D2E/DX2                !
 ! A56   A(26,25,28)           109.4713         estimate D2E/DX2                !
 ! A57   A(27,25,28)           109.4712         estimate D2E/DX2                !
 ! A58   A(2,29,30)            109.4714         estimate D2E/DX2                !
 ! A59   A(2,29,31)            109.4712         estimate D2E/DX2                !
 ! A60   A(2,29,32)            109.4711         estimate D2E/DX2                !
 ! A61   A(30,29,31)           109.4712         estimate D2E/DX2                !
 ! A62   A(30,29,32)           109.4712         estimate D2E/DX2                !
 ! A63   A(31,29,32)           109.4712         estimate D2E/DX2                !
 ! A64   A(19,33,34)           109.4715         estimate D2E/DX2                !
 ! A65   A(19,33,35)           109.4709         estimate D2E/DX2                !
 ! A66   A(19,33,36)           109.4711         estimate D2E/DX2                !
 ! A67   A(34,33,35)           109.4713         estimate D2E/DX2                !
 ! A68   A(34,33,36)           109.4712         estimate D2E/DX2                !
 ! A69   A(35,33,36)           109.4713         estimate D2E/DX2                !
 ! A70   L(22,23,24,35,-1)     179.9993         estimate D2E/DX2                !
 ! A71   L(22,23,24,35,-2)     180.0045         estimate D2E/DX2                !
 ! D1    D(5,1,2,3)             -0.0013         estimate D2E/DX2                !
 ! D2    D(5,1,2,29)           179.9995         estimate D2E/DX2                !
 ! D3    D(6,1,2,3)            179.9978         estimate D2E/DX2                !
 ! D4    D(6,1,2,29)            -0.0014         estimate D2E/DX2                !
 ! D5    D(2,1,5,4)              0.0012         estimate D2E/DX2                !
 ! D6    D(2,1,5,12)          -179.9993         estimate D2E/DX2                !
 ! D7    D(6,1,5,4)           -179.9979         estimate D2E/DX2                !
 ! D8    D(6,1,5,12)             0.0016         estimate D2E/DX2                !
 ! D9    D(2,1,6,16)             0.0078         estimate D2E/DX2                !
 ! D10   D(2,1,6,17)          -179.9916         estimate D2E/DX2                !
 ! D11   D(5,1,6,16)          -179.9931         estimate D2E/DX2                !
 ! D12   D(5,1,6,17)             0.0075         estimate D2E/DX2                !
 ! D13   D(1,2,3,10)          -179.9998         estimate D2E/DX2                !
 ! D14   D(1,2,3,15)             0.0004         estimate D2E/DX2                !
 ! D15   D(29,2,3,10)           -0.0006         estimate D2E/DX2                !
 ! D16   D(29,2,3,15)          179.9996         estimate D2E/DX2                !
 ! D17   D(1,2,29,30)          -90.0006         estimate D2E/DX2                !
 ! D18   D(1,2,29,31)           29.9994         estimate D2E/DX2                !
 ! D19   D(1,2,29,32)          149.9994         estimate D2E/DX2                !
 ! D20   D(3,2,29,30)           90.0002         estimate D2E/DX2                !
 ! D21   D(3,2,29,31)         -149.9998         estimate D2E/DX2                !
 ! D22   D(3,2,29,32)          -29.9998         estimate D2E/DX2                !
 ! D23   D(2,3,15,4)             0.0006         estimate D2E/DX2                !
 ! D24   D(2,3,15,25)         -179.9997         estimate D2E/DX2                !
 ! D25   D(10,3,15,4)         -179.9991         estimate D2E/DX2                !
 ! D26   D(10,3,15,25)           0.0005         estimate D2E/DX2                !
 ! D27   D(11,4,5,1)          -179.9998         estimate D2E/DX2                !
 ! D28   D(11,4,5,12)            0.0006         estimate D2E/DX2                !
 ! D29   D(15,4,5,1)            -0.0002         estimate D2E/DX2                !
 ! D30   D(15,4,5,12)         -179.9998         estimate D2E/DX2                !
 ! D31   D(5,4,15,3)            -0.0007         estimate D2E/DX2                !
 ! D32   D(5,4,15,25)          179.9996         estimate D2E/DX2                !
 ! D33   D(11,4,15,3)          179.9989         estimate D2E/DX2                !
 ! D34   D(11,4,15,25)          -0.0008         estimate D2E/DX2                !
 ! D35   D(1,6,16,7)          -179.9969         estimate D2E/DX2                !
 ! D36   D(17,6,16,7)            0.0026         estimate D2E/DX2                !
 ! D37   D(1,6,17,9)           179.9932         estimate D2E/DX2                !
 ! D38   D(16,6,17,9)           -0.0063         estimate D2E/DX2                !
 ! D39   D(13,7,8,9)           179.9985         estimate D2E/DX2                !
 ! D40   D(13,7,8,14)           -0.0016         estimate D2E/DX2                !
 ! D41   D(16,7,8,9)            -0.0025         estimate D2E/DX2                !
 ! D42   D(16,7,8,14)          179.9975         estimate D2E/DX2                !
 ! D43   D(8,7,16,6)             0.0019         estimate D2E/DX2                !
 ! D44   D(13,7,16,6)         -179.999          estimate D2E/DX2                !
 ! D45   D(7,8,9,17)            -0.0011         estimate D2E/DX2                !
 ! D46   D(7,8,9,18)           179.9986         estimate D2E/DX2                !
 ! D47   D(14,8,9,17)          179.999          estimate D2E/DX2                !
 ! D48   D(14,8,9,18)           -0.0013         estimate D2E/DX2                !
 ! D49   D(8,9,17,6)             0.0055         estimate D2E/DX2                !
 ! D50   D(18,9,17,6)         -179.9942         estimate D2E/DX2                !
 ! D51   D(8,9,18,19)          -30.001          estimate D2E/DX2                !
 ! D52   D(8,9,18,40)         -150.0009         estimate D2E/DX2                !
 ! D53   D(8,9,18,41)           89.9991         estimate D2E/DX2                !
 ! D54   D(17,9,18,19)         149.9987         estimate D2E/DX2                !
 ! D55   D(17,9,18,40)          29.9988         estimate D2E/DX2                !
 ! D56   D(17,9,18,41)         -90.0012         estimate D2E/DX2                !
 ! D57   D(3,15,25,26)         -29.9988         estimate D2E/DX2                !
 ! D58   D(3,15,25,27)          90.0013         estimate D2E/DX2                !
 ! D59   D(3,15,25,28)        -149.9989         estimate D2E/DX2                !
 ! D60   D(4,15,25,26)         150.0009         estimate D2E/DX2                !
 ! D61   D(4,15,25,27)         -89.9991         estimate D2E/DX2                !
 ! D62   D(4,15,25,28)          30.0008         estimate D2E/DX2                !
 ! D63   D(9,18,19,20)        -179.9994         estimate D2E/DX2                !
 ! D64   D(9,18,19,33)          60.0016         estimate D2E/DX2                !
 ! D65   D(40,18,19,20)        -59.9995         estimate D2E/DX2                !
 ! D66   D(40,18,19,33)       -179.9986         estimate D2E/DX2                !
 ! D67   D(41,18,19,20)         60.0005         estimate D2E/DX2                !
 ! D68   D(41,18,19,33)        -59.9985         estimate D2E/DX2                !
 ! D69   D(18,19,20,21)       -149.9932         estimate D2E/DX2                !
 ! D70   D(33,19,20,21)        -29.9933         estimate D2E/DX2                !
 ! D71   D(18,19,33,34)        -59.9999         estimate D2E/DX2                !
 ! D72   D(18,19,33,35)         60.0003         estimate D2E/DX2                !
 ! D73   D(18,19,33,36)       -179.9999         estimate D2E/DX2                !
 ! D74   D(20,19,33,34)        179.9998         estimate D2E/DX2                !
 ! D75   D(20,19,33,35)        -60.0001         estimate D2E/DX2                !
 ! D76   D(20,19,33,36)         59.9998         estimate D2E/DX2                !
 ! D77   D(19,20,21,22)       -179.9973         estimate D2E/DX2                !
 ! D78   D(19,20,21,39)          0.0025         estimate D2E/DX2                !
 ! D79   D(20,21,22,23)       -149.9985         estimate D2E/DX2                !
 ! D80   D(20,21,22,37)         90.0017         estimate D2E/DX2                !
 ! D81   D(20,21,22,38)        -29.9984         estimate D2E/DX2                !
 ! D82   D(39,21,22,23)         30.0017         estimate D2E/DX2                !
 ! D83   D(39,21,22,37)        -89.9981         estimate D2E/DX2                !
 ! D84   D(39,21,22,38)        150.0018         estimate D2E/DX2                !
 --------------------------------------------------------------------------------
 Trust Radius=3.00D-01 FncErr=1.00D-07 GrdErr=1.00D-06
 Number of steps in this run=    207 maximum allowed number of steps=    246.
 GradGradGradGradGradGradGradGradGradGradGradGradGradGradGradGradGradGrad

                          Input orientation:                          
 ---------------------------------------------------------------------
 Center     Atomic      Atomic             Coordinates (Angstroms)
 Number     Number       Type             X           Y           Z
 ---------------------------------------------------------------------
      1          6           0       -3.348252   -0.127719    0.415385
      2          6           0       -1.852358    0.141701    0.210056
      3          6           0       -1.340949    1.352358    0.542407
      4          6           0       -3.480770    2.207736    1.282687
      5          6           0       -4.120655    0.853612    0.924666
      6          6           0       -3.957026   -1.493426    0.046855
      7          6           0       -3.574967   -3.705155   -0.826288
      8          6           0       -5.070946   -3.972629   -0.620563
      9          6           0       -5.841297   -2.989357   -0.111134
     10          1           0       -0.297861    1.544092    0.400619
     11          1           0       -4.088022    2.990421    1.687101
     12          1           0       -5.167295    0.692900    1.078346
     13          1           0       -2.940256   -4.466876   -1.228564
     14          1           0       -5.495529   -4.920936   -0.876183
     15          7           0       -2.209832    2.408934    1.098243
     16          7           0       -3.087993   -2.549622   -0.508729
     17          7           0       -5.227893   -1.697333    0.230109
     18          6           0       -7.348013   -3.217735    0.110796
     19          7           0       -7.849741   -4.177589   -0.883108
     20          7           0       -9.219478   -4.385210   -0.681382
     21          6           0       -9.752365   -5.524497   -0.983792
     22          6           0      -11.259074   -5.752936   -0.761984
     23          6           0      -11.513721   -7.241569   -0.460903
     24          7           0      -11.703293   -8.349990   -0.236799
     25          6           0       -1.627051    3.711983    1.449414
     26          1           0       -0.606139    3.579178    1.740961
     27          1           0       -1.674119    4.363741    0.602125
     28          1           0       -2.176696    4.141510    2.260768
     29          6           0       -0.938640   -0.954359   -0.369062
     30          1           0       -0.538570   -1.543809    0.429309
     31          1           0       -1.505305   -1.580928   -1.025721
     32          1           0       -0.137187   -0.499888   -0.913148
     33          6           0       -7.134084   -5.453284   -0.737104
     34          1           0       -6.087204   -5.294631   -0.891280
     35          1           0       -7.294841   -5.841843    0.246805
     36          1           0       -7.499290   -6.151950   -1.460562
     37          1           0      -11.796182   -5.470318   -1.643200
     38          1           0      -11.591916   -5.159955    0.064141
     39          1           0       -9.146267   -6.308148   -1.388054
     40          1           0       -7.868955   -2.289172    0.004536
     41          1           0       -7.508741   -3.606305    1.094707
 ---------------------------------------------------------------------
                    Distance matrix (angstroms):
                    1          2          3          4          5
     1  C    0.000000
     2  C    1.533769   0.000000
     3  C    2.497204   1.355613   0.000000
     4  C    2.494819   2.840909   2.420438   0.000000
     5  C    1.348696   2.482470   2.849848   1.539898   0.000000
     6  C    1.539993   2.670188   3.897168   3.930993   2.511158
     7  C    3.793574   4.340472   5.695841   6.278450   4.913855
     8  C    4.338686   5.289324   6.604609   6.659424   5.155908
     9  C    3.831641   5.081174   6.287347   5.875764   4.336116
    10  H    3.478514   2.102255   1.070000   3.368884   3.919840
    11  H    3.447798   3.910890   3.397055   1.070000   2.268992
    12  H    2.102819   3.470815   3.919571   2.276148   1.070000
    13  H    4.658038   4.948953   6.289484   7.151852   5.859806
    14  H    5.408686   6.331106   7.656837   7.716083   6.203123
    15  N    2.863023   2.461100   1.476572   1.299917   2.469899
    16  N    2.605252   3.047403   4.402556   5.098618   3.834450
    17  N    2.455823   3.844046   4.950401   4.405669   2.866305
    18  C    5.063503   6.441886   7.560216   6.764957   5.258716
    19  N    6.192814   7.471271   8.658913   8.034361   6.518214
    20  N    7.334877   8.692643   9.822859   8.958643   7.484827
    21  C    8.490911   9.794957  10.971432  10.210644   8.720014
    22  C    9.778055  11.143515  12.270119  11.316139   9.871590
    23  C   10.865064  12.178046  13.354680  12.524287  11.050302
    24  N   11.740435  13.013433  14.216923  13.467899  11.981306
    25  C    4.333019   3.785985   2.544081   2.393080   3.829322
    26  H    4.797647   3.963960   2.633478   3.217820   4.521821
    27  H    4.796958   4.243950   3.030346   2.894047   4.290755
    28  H    4.796279   4.506561   3.380918   2.529176   4.046532
    29  C    2.665507   1.540002   2.512682   4.380588   3.881715
    30  H    3.146398   2.148267   3.007389   4.843437   4.338702
    31  H    2.754098   2.148264   3.330195   4.856458   4.070755
    32  H    3.494918   2.148263   2.645468   4.830370   4.591028
    33  C    6.634938   7.752264   9.028528   8.724534   7.184648
    34  H    5.992179   6.978579   8.292458   8.234388   6.705659
    35  H    6.946596   8.088558   9.343058   8.967492   7.440703
    36  H    7.552593   8.619098   9.912199   9.672553   8.135256
    37  H   10.205325  11.567582  12.674292  11.690141  10.271307
    38  H    9.664614  11.089989  12.154064  11.025354   9.629290
    39  H    8.664125   9.866895  11.105539  10.571234   9.049654
    40  H    5.027666   6.492367   7.494324   6.411866   4.977297
    41  H    5.465502   6.842868   7.933161   7.075519   5.603473
                    6          7          8          9         10
     6  C    0.000000
     7  C    2.408338   0.000000
     8  C    2.798698   1.533564   0.000000
     9  C    2.411068   2.481948   1.348993   0.000000
    10  H    4.768768   6.308670   7.366095   7.179397   0.000000
    11  H    4.776238   7.170153   7.401048   6.485782   4.255846
    12  H    2.703469   5.050349   4.966159   3.927869   4.989512
    13  H    3.391448   1.070001   2.270194   3.442056   6.765222
    14  H    3.868697   2.273581   1.070000   2.106147   8.393007
    15  N    4.403013   6.553587   7.201709   6.617528   2.211395
    16  N    1.476293   1.293539   2.443267   2.816404   5.036888
    17  N    1.300102   2.807043   2.434184   1.470387   5.902637
    18  C    3.804751   3.918110   2.507945   1.540001   8.512558
    19  N    4.819004   4.301176   2.798686   2.457984   9.561197
    20  N    6.048648   5.687177   4.169442   3.699418  10.766736
    21  C    7.134264   6.441666   4.945292   4.741826  11.885671
    22  C    8.492205   7.952549   6.440685   6.116640  13.219170
    23  C    9.508028   8.698479   7.226397   7.097890  14.273247
    24  N   10.348796   9.380388   7.955916   7.944506  15.112348
    25  C    5.873010   7.999196   8.671706   8.068652   2.750722
    26  H    6.311081   8.274431   9.085212   8.601324   2.456243
    27  H    6.310816   8.411937   9.084518   8.481873   3.144061
    28  H    6.310586   8.547236   9.083942   8.360890   3.706314
    29  C    3.094226   3.837467   5.123393   5.314489   2.691703
    30  H    3.440152   3.932893   5.248221   5.522735   3.097401
    31  H    2.677501   2.972476   4.312561   4.649835   3.641169
    32  H    4.062006   4.701023   6.040489   6.275154   2.435088
    33  C    5.136999   3.966260   2.542137   2.852030   9.848433
    34  H    4.457232   2.973549   1.689307   2.446096   9.052824
    35  H    5.485410   4.422039   3.031831   3.221426  10.175137
    36  H    6.043326   4.667914   3.369257   3.817315  10.702973
    37  H    8.951219   8.448167   6.965462   6.630464  13.623162
    38  H    8.469669   8.196388   6.663454   6.149133  13.138232
    39  H    7.222792   6.174993   4.759405   4.854660  11.964585
    40  H    3.992266   4.597130   3.324700   2.148263   8.495426
    41  H    4.263442   4.378879   3.003198   2.148267   8.888484
                   11         12         13         14         15
    11  H    0.000000
    12  H    2.610367   0.000000
    13  H    8.088866   6.074934   0.000000
    14  H    8.434517   5.953409   2.619114   0.000000
    15  N    2.052432   3.419321   7.295500   8.271709   0.000000
    16  N    6.042665   4.166083   2.053254   3.399173   5.285906
    17  N    5.039560   2.537004   3.877033   3.418645   5.169505
    18  C    7.187036   4.580912   4.773108   2.703095   7.683448
    19  N    8.493343   5.896142   4.930118   2.468791   8.894752
    20  N    9.292012   6.730827   6.303547   3.767327   9.922832
    21  C   10.569876   7.995705   6.898065   4.300758  11.142890
    22  C   11.570147   9.057891   8.430562   5.824407  12.327423
    23  C   12.823749  10.276293   9.043921   6.463469  13.495388
    24  N   13.794879  11.234890   9.636025   7.120643  14.410503
    25  C    2.575563   4.667535   8.705735   9.741705   1.469997
    26  H    3.531719   5.438180   8.888485  10.149261   2.086717
    27  H    2.981628   5.089611   9.106829  10.148586   2.086718
    28  H    2.303750   4.715370   9.320020  10.148056   2.086715
    29  C    5.450477   4.763400   4.133157   6.062684   3.883382
    30  H    5.894055   5.181622   4.130492   6.138464   4.343359
    31  H    5.909911   4.796619   3.229385   5.205757   4.574558
    32  H    5.878150   5.539926   4.867615   6.946860   4.099122
    33  C    9.297925   6.703708   4.336211   1.728468   9.456809
    34  H    8.904317   6.369944   3.271425   0.699968   8.850827
    35  H    9.506157   6.922483   4.798922   2.312292   9.729213
    36  H   10.253169   7.663956   4.866013   2.423211  10.383380
    37  H   11.920182   9.451678   8.922233   6.370900  12.708117
    38  H   11.196922   8.749873   8.775116   6.173109  12.098800
    39  H   11.022967   8.421996   6.475360   3.938814  11.414172
    40  H    6.708247   4.164707   5.527658   3.651712   7.435998
    41  H    7.454465   4.895488   5.197040   3.108969   8.016331
                   16         17         18         19         20
    16  N    0.000000
    17  N    2.418977   0.000000
    18  C    4.356370   2.611660   0.000000
    19  N    5.046254   3.776905   1.469999   0.000000
    20  N    6.402679   4.897780   2.343699   1.399993   0.000000
    21  C    7.313646   6.049098   3.507161   2.333297   1.293598
    22  C    8.780200   7.335346   4.741875   3.757651   2.457056
    23  C    9.644145   8.409975   5.819896   4.794891   3.670279
    24  N   10.389495   9.295518   6.740128   5.716337   4.699625
    25  C    6.721337   6.611616   9.085280  10.315420  11.302645
    26  H    6.984475   7.175294   9.711248  10.932655  11.978682
    27  H    7.143363   7.035931   9.482261  10.644179  11.624284
    28  H    7.298755   6.893872   9.247886  10.548688  11.443862
    29  C    2.680315   4.394168   6.814191   7.643087   8.968866
    30  H    2.896745   4.696062   7.019401   7.881146   9.201378
    31  H    1.926279   3.930435   6.173172   6.856738   8.215293
    32  H    3.615553   5.353149   7.773749   8.544582   9.881167
    33  C    4.985404   4.321601   2.400496   1.469993   2.343663
    34  H    4.083710   3.864775   2.628172   2.086716   3.268370
    35  H    5.395101   4.631362   2.628168   2.086709   2.586028
    36  H    5.774279   5.278374   3.331916   2.086712   2.586028
    37  H    9.254731   7.803020   5.285531   4.221763   2.956680
    38  H    8.913962   7.246936   4.667452   3.983240   2.604707
    39  H    7.183481   6.263523   3.876972   2.544647   2.049984
    40  H    4.815482   2.715946   1.070000   2.086720   2.586072
    41  H    4.819813   3.097414   1.070001   2.086720   2.586080
                   21         22         23         24         25
    21  C    0.000000
    22  C    1.539985   0.000000
    23  C    2.514781   1.539975   0.000000
    24  N    3.513906   2.686604   1.146629   0.000000
    25  C   12.540087  13.683963  14.878705  15.807124   0.000000
    26  H   13.189185  14.381867  15.521343  16.412294   1.069999
    27  H   12.866640  14.002832  15.252246  16.215027   1.070001
    28  H   12.702347  13.766869  14.972041  15.906963   1.069999
    29  C    9.947150  11.388243  12.303243  13.061034   5.055246
    30  H   10.135914  11.578650  12.398019  13.092702   5.463401
    31  H    9.141526  10.611843  11.512179  12.265462   5.844315
    32  H   10.849117  12.300965  13.231792  13.994869   5.053836
    33  C    2.630841   4.135934   4.738720   5.433129  10.913771
    34  H    3.673527   5.193746   5.781252   6.426820  10.319443
    35  H    2.766677   4.091540   4.501003   5.095010  11.173437
    36  H    2.386913   3.844892   4.278112   4.899247  11.842649
    37  H    2.148242   1.070000   2.148241   3.206104  14.046001
    38  H    2.148256   1.069997   2.148233   3.206134  13.413754
    39  H    1.069996   2.272482   2.708454   3.468846  12.844954
    40  H    3.871867   4.906946   6.166619   7.175926   8.778548
    41  H    3.610189   4.703224   5.628048   6.470682   9.395608
                   26         27         28         29         30
    26  H    0.000000
    27  H    1.747303   0.000000
    28  H    1.747303   1.747302   0.000000
    29  C    5.011558   5.455853   5.866573   0.000000
    30  H    5.288666   6.018180   6.193590   1.070001   0.000000
    31  H    5.923657   6.165831   6.633104   1.069999   1.747302
    32  H    4.889068   5.321006   5.981298   1.070000   1.747304
    33  C   11.416665  11.312769  11.208167   7.665462   7.755341
    34  H   10.757102  10.723326  10.689632   6.754138   6.826416
    35  H   11.650187  11.656445  11.398193   8.041647   8.009594
    36  H   12.347474  12.197010  12.171016   8.440880   8.559100
    37  H   14.783875  14.290079  14.147887  11.828083  12.101512
    38  H   14.137590  13.760556  13.415990  11.461544  11.635563
    39  H   13.434423  13.178885  13.079915   9.852235  10.004708
    40  H    9.497431   9.110124   8.879531   7.067571   7.380416
    41  H    9.984725   9.889747   9.477291   7.234755   7.299311
                   31         32         33         34         35
    31  H    0.000000
    32  H    1.747303   0.000000
    33  C    6.838245   8.574596   0.000000
    34  H    5.899446   7.641515   1.069999   0.000000
    35  H    7.300236   9.006330   1.069998   1.747302   0.000000
    36  H    7.550575   9.297636   1.070001   1.747302   1.747303
    37  H   11.018656  12.695287   4.749364   5.760961   4.896143
    38  H   10.758111  12.404924   4.538756   5.588633   4.354675
    39  H    8.992341  10.729629   2.281098   3.260654   2.513559
    40  H    6.485297   7.988987   3.331917   3.606924   3.606906
    41  H    6.681289   8.247492   2.628161   2.969066   2.400483
                   36         37         38         39         40
    36  H    0.000000
    37  H    4.354453   0.000000
    38  H    4.478656   1.747301   0.000000
    39  H    1.655955   2.790898   3.067314   0.000000
    40  H    4.147797   5.315810   4.701637   4.441058   0.000000
    41  H    3.606910   5.417825   4.488676   4.018152   1.747303
                   41
    41  H    0.000000
 Stoichiometry    C16H19N6(2)
 Framework group  C1[X(C16H19N6)]
 Deg. of freedom   117
 Full point group                 C1      NOp   1
 Largest Abelian subgroup         C1      NOp   1
 Largest concise Abelian subgroup C1      NOp   1
                         Standard orientation:                         
 ---------------------------------------------------------------------
 Center     Atomic      Atomic             Coordinates (Angstroms)
 Number     Number       Type             X           Y           Z
 ---------------------------------------------------------------------
      1          6           0       -3.074675   -0.122706    0.045325
      2          6           0       -4.311821    0.781241   -0.023944
      3          6           0       -5.547017    0.222709   -0.019805
      4          6           0       -4.678333   -2.032732    0.110172
      5          6           0       -3.249505   -1.458507    0.108988
      6          6           0       -1.659091    0.483667    0.042223
      7          6           0       -0.319026    2.483363   -0.032164
      8          6           0        0.916804    1.577947    0.036856
      9          6           0        0.739152    0.242210    0.100336
     10          1           0       -6.412487    0.850034   -0.068014
     11          1           0       -4.823899   -3.091589    0.160503
     12          1           0       -2.404091   -2.112538    0.158158
     13          1           0       -0.207819    3.546343   -0.083234
     14          1           0        1.901057    1.997636    0.034702
     15          7           0       -5.709312   -1.243227    0.050609
     16          7           0       -1.497194    1.949372   -0.028053
     17          7           0       -0.626170   -0.303621    0.101526
     18          6           0        1.954072   -0.701507    0.170841
     19          7           0        3.091081   -0.089855   -0.532001
     20          7           0        4.195556   -0.947764   -0.467931
     21          6           0        5.393891   -0.460540   -0.469283
     22          6           0        6.608862   -1.404172   -0.398872
     23          6           0        7.772177   -0.690840    0.314835
     24          7           0        8.638354   -0.159651    0.846186
     25          6           0       -7.061291   -1.820318    0.053414
     26          1           0       -7.741636   -1.132739    0.510868
     27          1           0       -7.369830   -2.010903   -0.953254
     28          1           0       -7.056501   -2.737375    0.604669
     29          6           0       -4.152069    2.311162   -0.097629
     30          1           0       -4.134549    2.716047    0.892656
     31          1           0       -3.236557    2.550528   -0.597069
     32          1           0       -4.974106    2.729907   -0.639670
     33          6           0        3.428512    1.191631    0.104250
     34          1           0        2.584390    1.847343    0.055292
     35          1           0        3.690634    1.023486    1.127928
     36          1           0        4.256131    1.636844   -0.407348
     37          1           0        6.909577   -1.672991   -1.389936
     38          1           0        6.344041   -2.286633    0.145210
     39          1           0        5.540929    0.598123   -0.519329
     40          1           0        1.708475   -1.634305   -0.292268
     41          1           0        2.216181   -0.869625    1.194529
 ---------------------------------------------------------------------
 Rotational constants (GHZ):      0.9088412      0.0822363      0.0761514
 Standard basis: 6-31G (6D, 7F)
 There are   236 symmetry adapted cartesian basis functions of A   symmetry.
 There are   236 symmetry adapted basis functions of A   symmetry.
   236 basis functions,   560 primitive gaussians,   236 cartesian basis functions
    79 alpha electrons       78 beta electrons
       nuclear repulsion energy      1583.2614762994 Hartrees.
 NAtoms=   41 NActive=   41 NUniq=   41 SFac= 1.00D+00 NAtFMM=   60 NAOKFM=F Big=F
 Integral buffers will be    131072 words long.
 Raffenetti 2 integral format.
 Two-electron integral symmetry is turned on.
 One-electron integrals computed using PRISM.
 NBasis=   236 RedAO= T EigKep=  8.61D-04  NBF=   236
 NBsUse=   236 1.00D-06 EigRej= -1.00D+00 NBFU=   236
 ExpMin= 1.61D-01 ExpMax= 4.17D+03 ExpMxC= 6.27D+02 IAcc=1 IRadAn=         1 AccDes= 0.00D+00
 Harris functional with IExCor=  402 and IRadAn=       1 diagonalized for initial guess.
 HarFok:  IExCor=  402 AccDes= 0.00D+00 IRadAn=         1 IDoV= 1 UseB2=F ITyADJ=14
 ICtDFT=  3500011 ScaDFX=  1.000000  1.000000  1.000000  1.000000
 FoFCou: FMM=F IPFlag=           0 FMFlag=      100000 FMFlg1=           0
         NFxFlg=           0 DoJE=T BraDBF=F KetDBF=T FulRan=T
         wScrn=  0.000000 ICntrl=     500 IOpCl=  0 I1Cent=   200000004 NGrid=           0
         NMat0=    1 NMatS0=      1 NMatT0=    0 NMatD0=    1 NMtDS0=    0 NMtDT0=    0
 Petite list used in FoFCou.
 Initial guess <Sx>= 0.0000 <Sy>= 0.0000 <Sz>= 0.5000 <S**2>= 0.7500 S= 0.5000
 Requested convergence on RMS density matrix=1.00D-08 within 128 cycles.
 Requested convergence on MAX density matrix=1.00D-06.
 Requested convergence on             energy=1.00D-06.
 No special actions if energy rises.
 Integral accuracy reduced to 1.0D-05 until final iterations.
 Initial convergence to 1.0D-05 achieved.  Increase integral accuracy.
 SCF Done:  E(UB3LYP) =  -949.025337357     A.U. after   23 cycles
            NFock= 23  Conv=0.48D-08     -V/T= 2.0050
 <Sx>= 0.0000 <Sy>= 0.0000 <Sz>= 0.5000 <S**2>= 0.7620 S= 0.5060
 <L.S>= 0.000000000000E+00
 Annihilation of the first spin contaminant:
 S**2 before annihilation     0.7620,   after     0.7501

 **********************************************************************

            Population analysis using the SCF density.

 **********************************************************************

 Orbital symmetries:
 Alpha Orbitals:
       Occupied  (A) (A) (A) (A) (A) (A) (A) (A) (A) (A) (A) (A)
                 (A) (A) (A) (A) (A) (A) (A) (A) (A) (A) (A) (A)
                 (A) (A) (A) (A) (A) (A) (A) (A) (A) (A) (A) (A)
                 (A) (A) (A) (A) (A) (A) (A) (A) (A) (A) (A) (A)
                 (A) (A) (A) (A) (A) (A) (A) (A) (A) (A) (A) (A)
                 (A) (A) (A) (A) (A) (A) (A) (A) (A) (A) (A) (A)
                 (A) (A) (A) (A) (A) (A) (A)
       Virtual   (A) (A) (A) (A) (A) (A) (A) (A) (A) (A) (A) (A)
                 (A) (A) (A) (A) (A) (A) (A) (A) (A) (A) (A) (A)
                 (A) (A) (A) (A) (A) (A) (A) (A) (A) (A) (A) (A)
                 (A) (A) (A) (A) (A) (A) (A) (A) (A) (A) (A) (A)
                 (A) (A) (A) (A) (A) (A) (A) (A) (A) (A) (A) (A)
                 (A) (A) (A) (A) (A) (A) (A) (A) (A) (A) (A) (A)
                 (A) (A) (A) (A) (A) (A) (A) (A) (A) (A) (A) (A)
                 (A) (A) (A) (A) (A) (A) (A) (A) (A) (A) (A) (A)
                 (A) (A) (A) (A) (A) (A) (A) (A) (A) (A) (A) (A)
                 (A) (A) (A) (A) (A) (A) (A) (A) (A) (A) (A) (A)
                 (A) (A) (A) (A) (A) (A) (A) (A) (A) (A) (A) (A)
                 (A) (A) (A) (A) (A) (A) (A) (A) (A) (A) (A) (A)
                 (A) (A) (A) (A) (A) (A) (A) (A) (A) (A) (A) (A)
                 (A)
 Beta  Orbitals:
       Occupied  (A) (A) (A) (A) (A) (A) (A) (A) (A) (A) (A) (A)
                 (A) (A) (A) (A) (A) (A) (A) (A) (A) (A) (A) (A)
                 (A) (A) (A) (A) (A) (A) (A) (A) (A) (A) (A) (A)
                 (A) (A) (A) (A) (A) (A) (A) (A) (A) (A) (A) (A)
                 (A) (A) (A) (A) (A) (A) (A) (A) (A) (A) (A) (A)
                 (A) (A) (A) (A) (A) (A) (A) (A) (A) (A) (A) (A)
                 (A) (A) (A) (A) (A) (A)
       Virtual   (A) (A) (A) (A) (A) (A) (A) (A) (A) (A) (A) (A)
                 (A) (A) (A) (A) (A) (A) (A) (A) (A) (A) (A) (A)
                 (A) (A) (A) (A) (A) (A) (A) (A) (A) (A) (A) (A)
                 (A) (A) (A) (A) (A) (A) (A) (A) (A) (A) (A) (A)
                 (A) (A) (A) (A) (A) (A) (A) (A) (A) (A) (A) (A)
                 (A) (A) (A) (A) (A) (A) (A) (A) (A) (A) (A) (A)
                 (A) (A) (A) (A) (A) (A) (A) (A) (A) (A) (A) (A)
                 (A) (A) (A) (A) (A) (A) (A) (A) (A) (A) (A) (A)
                 (A) (A) (A) (A) (A) (A) (A) (A) (A) (A) (A) (A)
                 (A) (A) (A) (A) (A) (A) (A) (A) (A) (A) (A) (A)
                 (A) (A) (A) (A) (A) (A) (A) (A) (A) (A) (A) (A)
                 (A) (A) (A) (A) (A) (A) (A) (A) (A) (A) (A) (A)
                 (A) (A) (A) (A) (A) (A) (A) (A) (A) (A) (A) (A)
                 (A) (A)
 The electronic state is 2-A.
 Alpha  occ. eigenvalues --  -14.39916 -14.38275 -14.37225 -14.34458 -14.32596
 Alpha  occ. eigenvalues --  -14.32311 -10.25418 -10.24377 -10.24010 -10.23585
 Alpha  occ. eigenvalues --  -10.23384 -10.23358 -10.23344 -10.23282 -10.22363
 Alpha  occ. eigenvalues --  -10.21823 -10.20727 -10.19470 -10.19135 -10.19005
 Alpha  occ. eigenvalues --  -10.17675 -10.14721  -1.02868  -0.99580  -0.96357
 Alpha  occ. eigenvalues --   -0.93721  -0.88494  -0.87277  -0.82574  -0.80662
 Alpha  occ. eigenvalues --   -0.77681  -0.76868  -0.76577  -0.73861  -0.70200
 Alpha  occ. eigenvalues --   -0.67689  -0.65783  -0.62443  -0.61682  -0.60608
 Alpha  occ. eigenvalues --   -0.58343  -0.54967  -0.54669  -0.53041  -0.51259
 Alpha  occ. eigenvalues --   -0.50705  -0.49996  -0.48731  -0.48375  -0.47714
 Alpha  occ. eigenvalues --   -0.47501  -0.46245  -0.46003  -0.43922  -0.43588
 Alpha  occ. eigenvalues --   -0.42928  -0.41985  -0.41774  -0.40471  -0.39827
 Alpha  occ. eigenvalues --   -0.38890  -0.38134  -0.37859  -0.36717  -0.35794
 Alpha  occ. eigenvalues --   -0.35268  -0.34542  -0.34221  -0.33993  -0.31965
 Alpha  occ. eigenvalues --   -0.31405  -0.29187  -0.27368  -0.26264  -0.25369
 Alpha  occ. eigenvalues --   -0.25287  -0.23311  -0.21352  -0.11153
 Alpha virt. eigenvalues --   -0.02977  -0.01747  -0.01523   0.00135   0.03866
 Alpha virt. eigenvalues --    0.04621   0.08156   0.08817   0.09341   0.10052
 Alpha virt. eigenvalues --    0.10777   0.11245   0.11516   0.12149   0.12756
 Alpha virt. eigenvalues --    0.14224   0.14556   0.14645   0.15424   0.15969
 Alpha virt. eigenvalues --    0.16224   0.16519   0.16987   0.17325   0.17625
 Alpha virt. eigenvalues --    0.18128   0.19444   0.19831   0.20371   0.21162
 Alpha virt. eigenvalues --    0.22032   0.23440   0.24047   0.25321   0.26236
 Alpha virt. eigenvalues --    0.26604   0.27737   0.28734   0.29626   0.30770
 Alpha virt. eigenvalues --    0.33341   0.35751   0.36131   0.37340   0.38763
 Alpha virt. eigenvalues --    0.39824   0.43014   0.46175   0.48103   0.48732
 Alpha virt. eigenvalues --    0.50034   0.50213   0.52676   0.53466   0.54055
 Alpha virt. eigenvalues --    0.54535   0.54658   0.55624   0.56030   0.56513
 Alpha virt. eigenvalues --    0.56994   0.57641   0.58075   0.59222   0.59946
 Alpha virt. eigenvalues --    0.60064   0.60527   0.61115   0.61377   0.62400
 Alpha virt. eigenvalues --    0.62752   0.63706   0.64591   0.65321   0.66304
 Alpha virt. eigenvalues --    0.67174   0.68518   0.68684   0.69009   0.71328
 Alpha virt. eigenvalues --    0.71590   0.71993   0.72543   0.72721   0.73755
 Alpha virt. eigenvalues --    0.74138   0.75081   0.76607   0.78178   0.79284
 Alpha virt. eigenvalues --    0.79703   0.80490   0.81586   0.82635   0.83547
 Alpha virt. eigenvalues --    0.85155   0.85254   0.85717   0.86079   0.86537
 Alpha virt. eigenvalues --    0.87942   0.88428   0.88908   0.90035   0.92445
 Alpha virt. eigenvalues --    0.92624   0.93254   0.94149   0.94383   0.95720
 Alpha virt. eigenvalues --    0.95930   0.96388   0.97474   0.97937   0.98247
 Alpha virt. eigenvalues --    1.00089   1.00378   1.00950   1.02371   1.03099
 Alpha virt. eigenvalues --    1.03612   1.04676   1.06043   1.08414   1.09068
 Alpha virt. eigenvalues --    1.10764   1.11872   1.13659   1.14358   1.18689
 Alpha virt. eigenvalues --    1.19256   1.20325   1.22749   1.24007   1.25133
 Alpha virt. eigenvalues --    1.25693   1.28769   1.30497   1.31943   1.34328
 Alpha virt. eigenvalues --    1.37835   1.40434   1.44141   1.46719   1.48276
 Alpha virt. eigenvalues --    1.50232   1.51135   1.52517   1.57783   1.61219
 Alpha virt. eigenvalues --    1.62832   1.76895   1.78609   1.83070   1.85039
 Alpha virt. eigenvalues --    1.89241   1.98162
  Beta  occ. eigenvalues --  -14.39354 -14.38276 -14.37225 -14.34458 -14.32544
  Beta  occ. eigenvalues --  -14.31992 -10.25394 -10.24377 -10.24092 -10.23584
  Beta  occ. eigenvalues --  -10.23407 -10.23344 -10.23314 -10.23012 -10.22254
  Beta  occ. eigenvalues --  -10.21820 -10.20757 -10.19140 -10.19109 -10.19039
  Beta  occ. eigenvalues --  -10.17512 -10.14722  -1.02869  -0.98541  -0.96063
  Beta  occ. eigenvalues --   -0.93721  -0.88442  -0.86964  -0.82223  -0.80524
  Beta  occ. eigenvalues --   -0.77343  -0.76828  -0.76440  -0.73576  -0.69999
  Beta  occ. eigenvalues --   -0.67606  -0.65492  -0.62407  -0.61238  -0.60379
  Beta  occ. eigenvalues --   -0.58207  -0.54884  -0.54596  -0.52836  -0.51055
  Beta  occ. eigenvalues --   -0.50604  -0.49865  -0.48279  -0.47834  -0.47562
  Beta  occ. eigenvalues --   -0.47452  -0.46220  -0.45905  -0.43840  -0.43522
  Beta  occ. eigenvalues --   -0.42838  -0.41905  -0.41412  -0.40396  -0.39604
  Beta  occ. eigenvalues --   -0.38577  -0.38020  -0.36726  -0.36362  -0.35607
  Beta  occ. eigenvalues --   -0.35255  -0.34427  -0.34206  -0.33983  -0.31811
  Beta  occ. eigenvalues --   -0.30087  -0.28258  -0.27324  -0.25280  -0.24845
  Beta  occ. eigenvalues --   -0.24005  -0.23292  -0.21166
  Beta virt. eigenvalues --   -0.04816  -0.02586  -0.01530  -0.00618   0.01683
  Beta virt. eigenvalues --    0.03868   0.04622   0.08303   0.08866   0.09974
  Beta virt. eigenvalues --    0.10542   0.10811   0.11429   0.11703   0.12247
  Beta virt. eigenvalues --    0.12974   0.14464   0.14842   0.15104   0.15514
  Beta virt. eigenvalues --    0.16133   0.16398   0.16633   0.17353   0.17507
  Beta virt. eigenvalues --    0.17834   0.18243   0.19535   0.20008   0.20524
  Beta virt. eigenvalues --    0.21264   0.22216   0.23478   0.24162   0.25426
  Beta virt. eigenvalues --    0.26252   0.26823   0.27819   0.28829   0.29977
  Beta virt. eigenvalues --    0.30978   0.33667   0.35769   0.36418   0.37491
  Beta virt. eigenvalues --    0.38815   0.39952   0.43265   0.46306   0.48348
  Beta virt. eigenvalues --    0.49318   0.50221   0.50331   0.52827   0.53556
  Beta virt. eigenvalues --    0.54226   0.54554   0.54697   0.55742   0.56269
  Beta virt. eigenvalues --    0.56580   0.57159   0.57797   0.58246   0.59266
  Beta virt. eigenvalues --    0.60063   0.60346   0.60542   0.61167   0.61675
  Beta virt. eigenvalues --    0.62543   0.62799   0.64334   0.64751   0.65460
  Beta virt. eigenvalues --    0.66350   0.67421   0.68521   0.68917   0.69457
  Beta virt. eigenvalues --    0.71456   0.71754   0.72050   0.72746   0.72962
  Beta virt. eigenvalues --    0.73853   0.74326   0.75200   0.76781   0.78230
  Beta virt. eigenvalues --    0.79443   0.79954   0.81022   0.81698   0.82778
  Beta virt. eigenvalues --    0.83654   0.85342   0.85738   0.86025   0.86429
  Beta virt. eigenvalues --    0.86812   0.88078   0.88552   0.88988   0.90093
  Beta virt. eigenvalues --    0.92487   0.92672   0.93506   0.94248   0.94749
  Beta virt. eigenvalues --    0.95930   0.96090   0.96506   0.97612   0.97981
  Beta virt. eigenvalues --    0.98563   1.00116   1.00412   1.01025   1.02411
  Beta virt. eigenvalues --    1.03220   1.03641   1.04696   1.06234   1.08604
  Beta virt. eigenvalues --    1.09093   1.10904   1.12095   1.13700   1.14478
  Beta virt. eigenvalues --    1.18918   1.19382   1.20462   1.22857   1.24133
  Beta virt. eigenvalues --    1.25216   1.25763   1.28867   1.30614   1.32106
  Beta virt. eigenvalues --    1.34446   1.38132   1.40660   1.44314   1.46742
  Beta virt. eigenvalues --    1.48551   1.50557   1.51260   1.52585   1.57840
  Beta virt. eigenvalues --    1.61305   1.63037   1.77092   1.78615   1.83154
  Beta virt. eigenvalues --    1.85225   1.89748   1.98282
          Condensed to atoms (all electrons):
               1          2          3          4          5          6
     1  C    5.187534   0.399420  -0.040970  -0.037671   0.399064   0.274754
     2  C    0.399420   4.863364   0.576504  -0.019072  -0.061697  -0.016709
     3  C   -0.040970   0.576504   4.998463  -0.036436  -0.032837   0.006522
     4  C   -0.037671  -0.019072  -0.036436   4.981402   0.471216   0.006117
     5  C    0.399064  -0.061697  -0.032837   0.471216   5.162056  -0.046540
     6  C    0.274754  -0.016709   0.006522   0.006117  -0.046540   4.999628
     7  C    0.004530   0.000312   0.000002   0.000002  -0.000125  -0.064122
     8  C   -0.001029   0.000007   0.000000   0.000000   0.000067  -0.022270
     9  C    0.007345  -0.000062   0.000001  -0.000002  -0.000156  -0.065901
    10  H    0.003642  -0.027542   0.360813   0.001851   0.000503  -0.000124
    11  H    0.002038   0.000830   0.002311   0.373605  -0.016445  -0.000150
    12  H   -0.033968   0.003759   0.000723  -0.028929   0.351481  -0.005166
    13  H    0.000038  -0.000015   0.000000   0.000000   0.000003   0.004427
    14  H    0.000036   0.000000   0.000000   0.000000  -0.000001   0.002184
    15  N   -0.022531  -0.024595   0.199084   0.240162  -0.035179   0.000227
    16  N   -0.085458   0.001562   0.000341  -0.000056   0.007049   0.281887
    17  N   -0.132203   0.003357  -0.000076   0.000675   0.003846   0.401893
    18  C    0.000043   0.000001   0.000000   0.000000  -0.000017   0.002038
    19  N    0.000000   0.000000   0.000000   0.000000   0.000000  -0.000119
    20  N    0.000000   0.000000   0.000000   0.000000   0.000000   0.000001
    21  C    0.000000   0.000000   0.000000   0.000000   0.000000   0.000000
    22  C    0.000000   0.000000   0.000000   0.000000   0.000000   0.000000
    23  C    0.000000   0.000000   0.000000   0.000000   0.000000   0.000000
    24  N    0.000000   0.000000   0.000000   0.000000   0.000000   0.000000
    25  C    0.000358   0.002166  -0.023723  -0.044386   0.003359   0.000008
    26  H    0.000000   0.000460   0.000206   0.002901  -0.000191   0.000000
    27  H    0.000004  -0.000043   0.001095   0.001351  -0.000070   0.000000
    28  H   -0.000032  -0.000149   0.001934   0.001983   0.000413   0.000000
    29  C   -0.015655   0.329805  -0.062274   0.000161   0.006970  -0.022824
    30  H   -0.001637  -0.030909  -0.002968   0.000007  -0.000212   0.001231
    31  H   -0.007876  -0.024459   0.002983   0.000009  -0.000081   0.001976
    32  H    0.002469  -0.037205  -0.003607   0.000026  -0.000321   0.001008
    33  C    0.000000   0.000000   0.000000   0.000000   0.000000   0.000008
    34  H   -0.000001   0.000000   0.000000   0.000000   0.000000  -0.000281
    35  H    0.000000   0.000000   0.000000   0.000000   0.000000  -0.000001
    36  H    0.000000   0.000000   0.000000   0.000000   0.000000   0.000000
    37  H    0.000000   0.000000   0.000000   0.000000   0.000000   0.000000
    38  H    0.000000   0.000000   0.000000   0.000000   0.000000   0.000000
    39  H    0.000000   0.000000   0.000000   0.000000   0.000000   0.000000
    40  H   -0.000052   0.000000   0.000000   0.000000   0.000001   0.000640
    41  H    0.000002   0.000000   0.000000   0.000000   0.000000  -0.000066
               7          8          9         10         11         12
     1  C    0.004530  -0.001029   0.007345   0.003642   0.002038  -0.033968
     2  C    0.000312   0.000007  -0.000062  -0.027542   0.000830   0.003759
     3  C    0.000002   0.000000   0.000001   0.360813   0.002311   0.000723
     4  C    0.000002   0.000000  -0.000002   0.001851   0.373605  -0.028929
     5  C   -0.000125   0.000067  -0.000156   0.000503  -0.016445   0.351481
     6  C   -0.064122  -0.022270  -0.065901  -0.000124  -0.000150  -0.005166
     7  C    4.897649   0.326378  -0.053755   0.000000   0.000000   0.000005
     8  C    0.326378   5.514979   0.445163   0.000000   0.000000   0.000059
     9  C   -0.053755   0.445163   5.016288   0.000000   0.000000  -0.000077
    10  H    0.000000   0.000000   0.000000   0.559416  -0.000164   0.000012
    11  H    0.000000   0.000000   0.000000  -0.000164   0.552810  -0.001159
    12  H    0.000005   0.000059  -0.000077   0.000012  -0.001159   0.533788
    13  H    0.376731  -0.065956   0.001914   0.000000   0.000000   0.000000
    14  H    0.025542   0.379203  -0.105560   0.000000   0.000000   0.000000
    15  N    0.000000   0.000000   0.000000  -0.047726  -0.059923   0.002702
    16  N    0.459004  -0.047176  -0.046342   0.000007   0.000000   0.000465
    17  N   -0.023726  -0.071958   0.395817   0.000000   0.000000   0.016157
    18  C    0.002957  -0.109200   0.268273   0.000000   0.000000  -0.000096
    19  N    0.000261   0.013338  -0.047218   0.000000   0.000000   0.000000
    20  N    0.000002  -0.000390   0.008032   0.000000   0.000000   0.000000
    21  C    0.000000   0.000094  -0.000625   0.000000   0.000000   0.000000
    22  C    0.000000   0.000000   0.000000   0.000000   0.000000   0.000000
    23  C    0.000000   0.000000   0.000000   0.000000   0.000000   0.000000
    24  N    0.000000   0.000000   0.000000   0.000000   0.000000   0.000000
    25  C    0.000000   0.000000   0.000000  -0.001363  -0.004796  -0.000092
    26  H    0.000000   0.000000   0.000000   0.002315   0.000214   0.000002
    27  H    0.000000   0.000000   0.000000   0.000135   0.000448   0.000001
    28  H    0.000000   0.000000   0.000000   0.000060   0.002494   0.000004
    29  C   -0.000217  -0.000162  -0.000007  -0.004514   0.000005  -0.000137
    30  H   -0.000001   0.000000   0.000001   0.000623   0.000000   0.000002
    31  H    0.000355   0.000306   0.000030   0.000091   0.000000  -0.000006
    32  H   -0.000002   0.000003   0.000000   0.004625   0.000000   0.000001
    33  C    0.004132  -0.119097   0.005276   0.000000   0.000000   0.000000
    34  H   -0.006850  -0.132486   0.022602   0.000000   0.000000   0.000000
    35  H   -0.000082   0.004952  -0.002792   0.000000   0.000000   0.000000
    36  H   -0.000089   0.001855   0.000603   0.000000   0.000000   0.000000
    37  H    0.000000   0.000000   0.000000   0.000000   0.000000   0.000000
    38  H    0.000000   0.000000   0.000001   0.000000   0.000000   0.000000
    39  H    0.000000   0.000063   0.000080   0.000000   0.000000   0.000000
    40  H   -0.000067   0.006439  -0.018533   0.000000   0.000000   0.000101
    41  H   -0.000078  -0.001345  -0.048438   0.000000   0.000000   0.000001
              13         14         15         16         17         18
     1  C    0.000038   0.000036  -0.022531  -0.085458  -0.132203   0.000043
     2  C   -0.000015   0.000000  -0.024595   0.001562   0.003357   0.000001
     3  C    0.000000   0.000000   0.199084   0.000341  -0.000076   0.000000
     4  C    0.000000   0.000000   0.240162  -0.000056   0.000675   0.000000
     5  C    0.000003  -0.000001  -0.035179   0.007049   0.003846  -0.000017
     6  C    0.004427   0.002184   0.000227   0.281887   0.401893   0.002038
     7  C    0.376731   0.025542   0.000000   0.459004  -0.023726   0.002957
     8  C   -0.065956   0.379203   0.000000  -0.047176  -0.071958  -0.109200
     9  C    0.001914  -0.105560   0.000000  -0.046342   0.395817   0.268273
    10  H    0.000000   0.000000  -0.047726   0.000007   0.000000   0.000000
    11  H    0.000000   0.000000  -0.059923   0.000000   0.000000   0.000000
    12  H    0.000000   0.000000   0.002702   0.000465   0.016157  -0.000096
    13  H    0.592781   0.001668   0.000000  -0.054202  -0.000392  -0.000144
    14  H    0.001668   0.932925   0.000000   0.004346   0.005522  -0.000936
    15  N    0.000000   0.000000   7.198033  -0.000002  -0.000005   0.000000
    16  N   -0.054202   0.004346  -0.000002   7.076608  -0.139804  -0.000446
    17  N   -0.000392   0.005522  -0.000005  -0.139804   7.036864  -0.045991
    18  C   -0.000144  -0.000936   0.000000  -0.000446  -0.045991   5.233933
    19  N    0.000000   0.015369   0.000000   0.000002   0.001289   0.223052
    20  N    0.000000  -0.002549   0.000000   0.000000  -0.000044  -0.072760
    21  C    0.000000  -0.000422   0.000000   0.000000   0.000001   0.005783
    22  C    0.000000   0.000001   0.000000   0.000000   0.000000  -0.000219
    23  C    0.000000   0.000000   0.000000   0.000000   0.000000   0.000010
    24  N    0.000000   0.000000   0.000000   0.000000   0.000000   0.000000
    25  C    0.000000   0.000000   0.242764   0.000000   0.000000   0.000000
    26  H    0.000000   0.000000  -0.039238   0.000000   0.000000   0.000000
    27  H    0.000000   0.000000  -0.055662   0.000000   0.000000   0.000000
    28  H    0.000000   0.000000  -0.042837   0.000000   0.000000   0.000000
    29  C    0.000584   0.000003   0.004299  -0.062616  -0.000335   0.000000
    30  H    0.000002   0.000000  -0.000087   0.000975   0.000002   0.000000
    31  H   -0.000459  -0.000006  -0.000107   0.025659   0.000364   0.000000
    32  H   -0.000023   0.000000   0.000144   0.002631   0.000010   0.000000
    33  C    0.000090  -0.123165   0.000000  -0.000140  -0.000632  -0.080491
    34  H   -0.000602  -0.205470   0.000000  -0.000505  -0.000747   0.003336
    35  H   -0.000003   0.008110   0.000000   0.000003   0.000031  -0.002825
    36  H    0.000000   0.005707   0.000000   0.000001   0.000003   0.005681
    37  H    0.000000   0.000000   0.000000   0.000000   0.000000  -0.000007
    38  H    0.000000   0.000000   0.000000   0.000000   0.000000   0.000022
    39  H    0.000000   0.000447   0.000000   0.000000   0.000000  -0.000036
    40  H    0.000002  -0.000006   0.000000   0.000053   0.004525   0.349846
    41  H    0.000003   0.000567   0.000000   0.000018   0.001322   0.364471
              19         20         21         22         23         24
     1  C    0.000000   0.000000   0.000000   0.000000   0.000000   0.000000
     2  C    0.000000   0.000000   0.000000   0.000000   0.000000   0.000000
     3  C    0.000000   0.000000   0.000000   0.000000   0.000000   0.000000
     4  C    0.000000   0.000000   0.000000   0.000000   0.000000   0.000000
     5  C    0.000000   0.000000   0.000000   0.000000   0.000000   0.000000
     6  C   -0.000119   0.000001   0.000000   0.000000   0.000000   0.000000
     7  C    0.000261   0.000002   0.000000   0.000000   0.000000   0.000000
     8  C    0.013338  -0.000390   0.000094   0.000000   0.000000   0.000000
     9  C   -0.047218   0.008032  -0.000625   0.000000   0.000000   0.000000
    10  H    0.000000   0.000000   0.000000   0.000000   0.000000   0.000000
    11  H    0.000000   0.000000   0.000000   0.000000   0.000000   0.000000
    12  H    0.000000   0.000000   0.000000   0.000000   0.000000   0.000000
    13  H    0.000000   0.000000   0.000000   0.000000   0.000000   0.000000
    14  H    0.015369  -0.002549  -0.000422   0.000001   0.000000   0.000000
    15  N    0.000000   0.000000   0.000000   0.000000   0.000000   0.000000
    16  N    0.000002   0.000000   0.000000   0.000000   0.000000   0.000000
    17  N    0.001289  -0.000044   0.000001   0.000000   0.000000   0.000000
    18  C    0.223052  -0.072760   0.005783  -0.000219   0.000010   0.000000
    19  N    7.140093   0.145672  -0.081695   0.008503  -0.000178   0.000000
    20  N    0.145672   6.809942   0.482204  -0.064358   0.002141  -0.000013
    21  C   -0.081695   0.482204   5.010871   0.289109  -0.033118  -0.001879
    22  C    0.008503  -0.064358   0.289109   5.269652   0.183838  -0.036546
    23  C   -0.000178   0.002141  -0.033118   0.183838   4.924833   0.880665
    24  N    0.000000  -0.000013  -0.001879  -0.036546   0.880665   6.420895
    25  C    0.000000   0.000000   0.000000   0.000000   0.000000   0.000000
    26  H    0.000000   0.000000   0.000000   0.000000   0.000000   0.000000
    27  H    0.000000   0.000000   0.000000   0.000000   0.000000   0.000000
    28  H    0.000000   0.000000   0.000000   0.000000   0.000000   0.000000
    29  C    0.000000   0.000000   0.000000   0.000000   0.000000   0.000000
    30  H    0.000000   0.000000   0.000000   0.000000   0.000000   0.000000
    31  H    0.000000   0.000000   0.000000   0.000000   0.000000   0.000000
    32  H    0.000000   0.000000   0.000000   0.000000   0.000000   0.000000
    33  C    0.237138  -0.072964  -0.013884  -0.000278   0.000021  -0.000002
    34  H   -0.073913   0.013949   0.002701   0.000009  -0.000008   0.000000
    35  H   -0.068586  -0.003526   0.010056  -0.000513   0.000022  -0.000002
    36  H   -0.037117  -0.006704  -0.007215   0.000870   0.000019   0.000002
    37  H   -0.000169  -0.002046  -0.030804   0.368170  -0.035811  -0.000869
    38  H   -0.000130   0.004924  -0.030183   0.362719  -0.026518  -0.000424
    39  H   -0.020247  -0.061526   0.347344  -0.075658   0.005983   0.000591
    40  H   -0.034175   0.003697  -0.000149  -0.000017   0.000001   0.000000
    41  H   -0.067539   0.002048   0.002553  -0.000075  -0.000003   0.000000
              25         26         27         28         29         30
     1  C    0.000358   0.000000   0.000004  -0.000032  -0.015655  -0.001637
     2  C    0.002166   0.000460  -0.000043  -0.000149   0.329805  -0.030909
     3  C   -0.023723   0.000206   0.001095   0.001934  -0.062274  -0.002968
     4  C   -0.044386   0.002901   0.001351   0.001983   0.000161   0.000007
     5  C    0.003359  -0.000191  -0.000070   0.000413   0.006970  -0.000212
     6  C    0.000008   0.000000   0.000000   0.000000  -0.022824   0.001231
     7  C    0.000000   0.000000   0.000000   0.000000  -0.000217  -0.000001
     8  C    0.000000   0.000000   0.000000   0.000000  -0.000162   0.000000
     9  C    0.000000   0.000000   0.000000   0.000000  -0.000007   0.000001
    10  H   -0.001363   0.002315   0.000135   0.000060  -0.004514   0.000623
    11  H   -0.004796   0.000214   0.000448   0.002494   0.000005   0.000000
    12  H   -0.000092   0.000002   0.000001   0.000004  -0.000137   0.000002
    13  H    0.000000   0.000000   0.000000   0.000000   0.000584   0.000002
    14  H    0.000000   0.000000   0.000000   0.000000   0.000003   0.000000
    15  N    0.242764  -0.039238  -0.055662  -0.042837   0.004299  -0.000087
    16  N    0.000000   0.000000   0.000000   0.000000  -0.062616   0.000975
    17  N    0.000000   0.000000   0.000000   0.000000  -0.000335   0.000002
    18  C    0.000000   0.000000   0.000000   0.000000   0.000000   0.000000
    19  N    0.000000   0.000000   0.000000   0.000000   0.000000   0.000000
    20  N    0.000000   0.000000   0.000000   0.000000   0.000000   0.000000
    21  C    0.000000   0.000000   0.000000   0.000000   0.000000   0.000000
    22  C    0.000000   0.000000   0.000000   0.000000   0.000000   0.000000
    23  C    0.000000   0.000000   0.000000   0.000000   0.000000   0.000000
    24  N    0.000000   0.000000   0.000000   0.000000   0.000000   0.000000
    25  C    4.931376   0.379747   0.382449   0.381575  -0.000107   0.000004
    26  H    0.379747   0.546955  -0.036796  -0.023616  -0.000001  -0.000003
    27  H    0.382449  -0.036796   0.570912  -0.038977   0.000000   0.000000
    28  H    0.381575  -0.023616  -0.038977   0.551556   0.000002   0.000000
    29  C   -0.000107  -0.000001   0.000000   0.000002   5.201565   0.372736
    30  H    0.000004  -0.000003   0.000000   0.000000   0.372736   0.570192
    31  H    0.000001   0.000000   0.000000   0.000000   0.362183  -0.026008
    32  H   -0.000005   0.000004   0.000000   0.000000   0.333605  -0.033961
    33  C    0.000000   0.000000   0.000000   0.000000   0.000000   0.000000
    34  H    0.000000   0.000000   0.000000   0.000000   0.000000   0.000000
    35  H    0.000000   0.000000   0.000000   0.000000   0.000000   0.000000
    36  H    0.000000   0.000000   0.000000   0.000000   0.000000   0.000000
    37  H    0.000000   0.000000   0.000000   0.000000   0.000000   0.000000
    38  H    0.000000   0.000000   0.000000   0.000000   0.000000   0.000000
    39  H    0.000000   0.000000   0.000000   0.000000   0.000000   0.000000
    40  H    0.000000   0.000000   0.000000   0.000000   0.000000   0.000000
    41  H    0.000000   0.000000   0.000000   0.000000   0.000000   0.000000
              31         32         33         34         35         36
     1  C   -0.007876   0.002469   0.000000  -0.000001   0.000000   0.000000
     2  C   -0.024459  -0.037205   0.000000   0.000000   0.000000   0.000000
     3  C    0.002983  -0.003607   0.000000   0.000000   0.000000   0.000000
     4  C    0.000009   0.000026   0.000000   0.000000   0.000000   0.000000
     5  C   -0.000081  -0.000321   0.000000   0.000000   0.000000   0.000000
     6  C    0.001976   0.001008   0.000008  -0.000281  -0.000001   0.000000
     7  C    0.000355  -0.000002   0.004132  -0.006850  -0.000082  -0.000089
     8  C    0.000306   0.000003  -0.119097  -0.132486   0.004952   0.001855
     9  C    0.000030   0.000000   0.005276   0.022602  -0.002792   0.000603
    10  H    0.000091   0.004625   0.000000   0.000000   0.000000   0.000000
    11  H    0.000000   0.000000   0.000000   0.000000   0.000000   0.000000
    12  H   -0.000006   0.000001   0.000000   0.000000   0.000000   0.000000
    13  H   -0.000459  -0.000023   0.000090  -0.000602  -0.000003   0.000000
    14  H   -0.000006   0.000000  -0.123165  -0.205470   0.008110   0.005707
    15  N   -0.000107   0.000144   0.000000   0.000000   0.000000   0.000000
    16  N    0.025659   0.002631  -0.000140  -0.000505   0.000003   0.000001
    17  N    0.000364   0.000010  -0.000632  -0.000747   0.000031   0.000003
    18  C    0.000000   0.000000  -0.080491   0.003336  -0.002825   0.005681
    19  N    0.000000   0.000000   0.237138  -0.073913  -0.068586  -0.037117
    20  N    0.000000   0.000000  -0.072964   0.013949  -0.003526  -0.006704
    21  C    0.000000   0.000000  -0.013884   0.002701   0.010056  -0.007215
    22  C    0.000000   0.000000  -0.000278   0.000009  -0.000513   0.000870
    23  C    0.000000   0.000000   0.000021  -0.000008   0.000022   0.000019
    24  N    0.000000   0.000000  -0.000002   0.000000  -0.000002   0.000002
    25  C    0.000001  -0.000005   0.000000   0.000000   0.000000   0.000000
    26  H    0.000000   0.000004   0.000000   0.000000   0.000000   0.000000
    27  H    0.000000   0.000000   0.000000   0.000000   0.000000   0.000000
    28  H    0.000000   0.000000   0.000000   0.000000   0.000000   0.000000
    29  C    0.362183   0.333605   0.000000   0.000000   0.000000   0.000000
    30  H   -0.026008  -0.033961   0.000000   0.000000   0.000000   0.000000
    31  H    0.478575  -0.023856   0.000000   0.000001   0.000000   0.000000
    32  H   -0.023856   0.643122   0.000000   0.000000   0.000000   0.000000
    33  C    0.000000   0.000000   5.363944   0.353209   0.365913   0.361548
    34  H    0.000001   0.000000   0.353209   0.906974  -0.050959  -0.016340
    35  H    0.000000   0.000000   0.365913  -0.050959   0.613901  -0.043524
    36  H    0.000000   0.000000   0.361548  -0.016340  -0.043524   0.578461
    37  H    0.000000   0.000000   0.000026   0.000001   0.000021  -0.000062
    38  H    0.000000   0.000000   0.000043  -0.000002  -0.000024  -0.000006
    39  H    0.000000   0.000000   0.011317  -0.002824   0.002533  -0.000216
    40  H    0.000000   0.000000   0.007187  -0.000530  -0.000373  -0.000165
    41  H    0.000000   0.000000  -0.006369  -0.001434   0.015689  -0.000617
              37         38         39         40         41
     1  C    0.000000   0.000000   0.000000  -0.000052   0.000002
     2  C    0.000000   0.000000   0.000000   0.000000   0.000000
     3  C    0.000000   0.000000   0.000000   0.000000   0.000000
     4  C    0.000000   0.000000   0.000000   0.000000   0.000000
     5  C    0.000000   0.000000   0.000000   0.000001   0.000000
     6  C    0.000000   0.000000   0.000000   0.000640  -0.000066
     7  C    0.000000   0.000000   0.000000  -0.000067  -0.000078
     8  C    0.000000   0.000000   0.000063   0.006439  -0.001345
     9  C    0.000000   0.000001   0.000080  -0.018533  -0.048438
    10  H    0.000000   0.000000   0.000000   0.000000   0.000000
    11  H    0.000000   0.000000   0.000000   0.000000   0.000000
    12  H    0.000000   0.000000   0.000000   0.000101   0.000001
    13  H    0.000000   0.000000   0.000000   0.000002   0.000003
    14  H    0.000000   0.000000   0.000447  -0.000006   0.000567
    15  N    0.000000   0.000000   0.000000   0.000000   0.000000
    16  N    0.000000   0.000000   0.000000   0.000053   0.000018
    17  N    0.000000   0.000000   0.000000   0.004525   0.001322
    18  C   -0.000007   0.000022  -0.000036   0.349846   0.364471
    19  N   -0.000169  -0.000130  -0.020247  -0.034175  -0.067539
    20  N   -0.002046   0.004924  -0.061526   0.003697   0.002048
    21  C   -0.030804  -0.030183   0.347344  -0.000149   0.002553
    22  C    0.368170   0.362719  -0.075658  -0.000017  -0.000075
    23  C   -0.035811  -0.026518   0.005983   0.000001  -0.000003
    24  N   -0.000869  -0.000424   0.000591   0.000000   0.000000
    25  C    0.000000   0.000000   0.000000   0.000000   0.000000
    26  H    0.000000   0.000000   0.000000   0.000000   0.000000
    27  H    0.000000   0.000000   0.000000   0.000000   0.000000
    28  H    0.000000   0.000000   0.000000   0.000000   0.000000
    29  C    0.000000   0.000000   0.000000   0.000000   0.000000
    30  H    0.000000   0.000000   0.000000   0.000000   0.000000
    31  H    0.000000   0.000000   0.000000   0.000000   0.000000
    32  H    0.000000   0.000000   0.000000   0.000000   0.000000
    33  C    0.000026   0.000043   0.011317   0.007187  -0.006369
    34  H    0.000001  -0.000002  -0.002824  -0.000530  -0.001434
    35  H    0.000021  -0.000024   0.002533  -0.000373   0.015689
    36  H   -0.000062  -0.000006  -0.000216  -0.000165  -0.000617
    37  H    0.515277  -0.023717   0.002410  -0.000002   0.000005
    38  H   -0.023717   0.498223   0.004544   0.000016  -0.000019
    39  H    0.002410   0.004544   0.645014   0.000049   0.000095
    40  H   -0.000002   0.000016   0.000049   0.524889  -0.033296
    41  H    0.000005  -0.000019   0.000095  -0.033296   0.615553
          Atomic-Atomic Spin Densities.
               1          2          3          4          5          6
     1  C    0.396216  -0.035828  -0.011858  -0.020891  -0.065383   0.047028
     2  C   -0.035828  -0.026029   0.020543   0.004759   0.003827  -0.004290
     3  C   -0.011858   0.020543   0.119537   0.011341   0.004971  -0.000324
     4  C   -0.020891   0.004759   0.011341   0.385846   0.051498  -0.000547
     5  C   -0.065383   0.003827   0.004971   0.051498  -0.039267  -0.005433
     6  C    0.047028  -0.004290  -0.000324  -0.000547  -0.005433   0.032539
     7  C   -0.000279   0.000015   0.000001   0.000000   0.000008  -0.001219
     8  C    0.000153  -0.000004   0.000000   0.000000  -0.000007   0.002596
     9  C   -0.000065   0.000000   0.000000   0.000000   0.000014   0.000014
    10  H    0.000103  -0.000735   0.001025   0.000056  -0.000028   0.000001
    11  H    0.000168  -0.000056  -0.000012   0.001437  -0.001057   0.000004
    12  H   -0.000483  -0.000030  -0.000002  -0.001199   0.001844   0.000141
    13  H   -0.000004   0.000001   0.000000   0.000000   0.000000   0.000023
    14  H    0.000000   0.000000   0.000000   0.000000   0.000000   0.000004
    15  N    0.007736  -0.005243  -0.062388  -0.148978  -0.011460   0.000064
    16  N   -0.004857   0.000784   0.000017   0.000002   0.000077  -0.010226
[...]
    26  H(1)               0.00231      10.32579       3.68450       3.44431
    27  H(1)               0.00656      29.30477      10.45667       9.77502
    28  H(1)               0.00125       5.57373       1.98885       1.85920
    29  C(13)             -0.00037      -0.41528      -0.14818      -0.13852
    30  H(1)               0.00035       1.55252       0.55398       0.51787
    31  H(1)               0.00027       1.21361       0.43305       0.40482
    32  H(1)              -0.00018      -0.81312      -0.29014      -0.27123
    33  C(13)              0.00007       0.07985       0.02849       0.02664
    34  H(1)               0.00000       0.00715       0.00255       0.00238
    35  H(1)               0.00001       0.04624       0.01650       0.01542
    36  H(1)               0.00000       0.02100       0.00749       0.00701
    37  H(1)              -0.00002      -0.07514      -0.02681      -0.02507
    38  H(1)               0.00000      -0.00411      -0.00147      -0.00137
    39  H(1)               0.00001       0.04184       0.01493       0.01396
    40  H(1)              -0.00088      -3.91219      -1.39597      -1.30497
    41  H(1)              -0.00012      -0.53507      -0.19093      -0.17848
 --------------------------------------------------------
       Center         ----  Spin Dipole Couplings  ----
                      3XX-RR        3YY-RR        3ZZ-RR
 --------------------------------------------------------
     1   Atom       -0.153578     -0.156150      0.309729
     2   Atom        0.012360      0.003027     -0.015387
     3   Atom       -0.079738     -0.072846      0.152584
     4   Atom       -0.064591     -0.063338      0.127929
     5   Atom        0.001854      0.000889     -0.002742
     6   Atom       -0.010488     -0.017237      0.027725
     7   Atom        0.032036      0.020873     -0.052910
     8   Atom       -0.078655     -0.085526      0.164181
     9   Atom        0.029650      0.025258     -0.054908
    10   Atom        0.006073     -0.003383     -0.002690
    11   Atom       -0.009512      0.013329     -0.003816
    12   Atom        0.002660      0.001981     -0.004641
    13   Atom        0.003568     -0.001122     -0.002446
    14   Atom        0.011451     -0.009793     -0.001658
    15   Atom       -0.273347     -0.250929      0.524276
    16   Atom       -0.118359     -0.118146      0.236505
    17   Atom       -0.106365     -0.112765      0.219130
    18   Atom        0.001033      0.000349     -0.001383
    19   Atom       -0.001703      0.001129      0.000574
    20   Atom        0.001030     -0.000126     -0.000904
    21   Atom        0.001011     -0.000769     -0.000242
    22   Atom        0.000521     -0.000268     -0.000253
    23   Atom        0.000295     -0.000142     -0.000153
    24   Atom        0.000210     -0.000095     -0.000115
    25   Atom        0.008211     -0.001825     -0.006386
    26   Atom        0.006664     -0.003543     -0.003121
    27   Atom        0.005757     -0.002211     -0.003545
    28   Atom        0.001877      0.001546     -0.003424
    29   Atom        0.000065      0.003039     -0.003105
    30   Atom       -0.000349      0.001781     -0.001432
    31   Atom        0.000106      0.003067     -0.003173
    32   Atom       -0.001349      0.003600     -0.002250
    33   Atom        0.000885      0.000062     -0.000947
    34   Atom        0.000887     -0.000078     -0.000809
    35   Atom        0.000475     -0.000069     -0.000406
    36   Atom        0.000615     -0.000319     -0.000296
    37   Atom        0.000480     -0.000248     -0.000231
    38   Atom        0.000559     -0.000281     -0.000278
    39   Atom        0.000584     -0.000252     -0.000333
    40   Atom        0.000610      0.000062     -0.000672
    41   Atom        0.001432     -0.000140     -0.001292
 --------------------------------------------------------
                        XY            XZ            YZ
 --------------------------------------------------------
     1   Atom       -0.013160      0.085100     -0.099633
     2   Atom        0.001889     -0.004135      0.004346
     3   Atom       -0.010914      0.045503     -0.053851
     4   Atom       -0.008059      0.031823     -0.035124
     5   Atom        0.005291      0.001193     -0.000446
     6   Atom        0.002162      0.008789     -0.009500
     7   Atom        0.003572     -0.015966      0.014055
     8   Atom       -0.006235      0.047617     -0.048163
     9   Atom        0.007522     -0.015549      0.015135
    10   Atom       -0.012463     -0.004717      0.002332
    11   Atom        0.002298      0.001169      0.002946
    12   Atom       -0.000158     -0.001454      0.001497
    13   Atom        0.000776     -0.000991      0.000150
    14   Atom        0.008079     -0.000915     -0.003070
    15   Atom       -0.021742      0.107932     -0.182271
    16   Atom       -0.009034      0.067303     -0.067961
    17   Atom       -0.011549      0.061561     -0.060674
    18   Atom       -0.001231     -0.000594      0.000605
    19   Atom        0.001887     -0.001701      0.001697
    20   Atom       -0.001051     -0.000313      0.000210
    21   Atom       -0.000040      0.000268     -0.000427
    22   Atom       -0.000054      0.000038     -0.000007
    23   Atom       -0.000053      0.000023     -0.000005
    24   Atom       -0.000037      0.000014     -0.000004
    25   Atom        0.005868     -0.000614      0.000294
    26   Atom        0.002022     -0.002960     -0.001092
    27   Atom        0.002890      0.002732      0.001429
    28   Atom        0.006053     -0.000678     -0.000537
    29   Atom       -0.000426     -0.000788      0.001602
    30   Atom       -0.000328     -0.001125      0.002644
    31   Atom       -0.001127     -0.000085     -0.000313
    32   Atom       -0.000782     -0.000387      0.001440
    33   Atom       -0.000438      0.000667     -0.000287
    34   Atom       -0.001008      0.000753     -0.000556
    35   Atom       -0.000466      0.000314     -0.000195
    36   Atom       -0.000492      0.000798     -0.000535
    37   Atom        0.000054      0.000102      0.000003
    38   Atom       -0.000015     -0.000080      0.000004
    39   Atom       -0.000221      0.000271     -0.000083
    40   Atom       -0.000568     -0.000959      0.000643
    41   Atom       -0.001622     -0.000873      0.000618
 --------------------------------------------------------


 ---------------------------------------------------------------------------------
              Anisotropic Spin Dipole Couplings in Principal Axis System
 ---------------------------------------------------------------------------------

       Atom             a.u.   MegaHertz   Gauss  10(-4) cm-1        Axes

              Baa    -0.1783   -23.925    -8.537    -7.980 -0.3803  0.8909  0.2482
     1 C(13)  Bbb    -0.1667   -22.368    -7.982    -7.461  0.9091  0.4094 -0.0768
              Bcc     0.3450    46.293    16.519    15.442  0.1700 -0.1965  0.9657
 
              Baa    -0.0170    -2.286    -0.816    -0.763  0.1498 -0.2228  0.9633
     2 C(13)  Bbb     0.0039     0.524     0.187     0.175 -0.0990  0.9660  0.2388
              Bcc     0.0131     1.762     0.629     0.588  0.9837  0.1312 -0.1227
 
              Baa    -0.0885   -11.874    -4.237    -3.961  0.9697  0.2015 -0.1380
     3 C(13)  Bbb    -0.0850   -11.400    -4.068    -3.803 -0.1631  0.9550  0.2478
              Bcc     0.1734    23.273     8.304     7.763  0.1817 -0.2177  0.9589
 
              Baa    -0.0721    -9.669    -3.450    -3.225  0.7176  0.6964  0.0081
     4 C(13)  Bbb    -0.0674    -9.042    -3.226    -3.016 -0.6782  0.6960  0.2357
              Bcc     0.1394    18.710     6.676     6.241  0.1585 -0.1746  0.9718
 
              Baa    -0.0046    -0.622    -0.222    -0.207 -0.5953  0.6125  0.5202
     5 C(13)  Bbb    -0.0021    -0.280    -0.100    -0.093  0.3095 -0.4226  0.8518
              Bcc     0.0067     0.902     0.322     0.301  0.7415  0.6680  0.0620
 
              Baa    -0.0208    -2.794    -0.997    -0.932 -0.3936  0.8861  0.2447
     6 C(13)  Bbb    -0.0104    -1.402    -0.500    -0.468  0.8987  0.4269 -0.1007
              Bcc     0.0313     4.196     1.497     1.399  0.1937 -0.1802  0.9644
 
              Baa    -0.0585    -7.844    -2.799    -2.616  0.1778 -0.1794  0.9676
     7 C(13)  Bbb     0.0234     3.144     1.122     1.049 -0.0519  0.9802  0.1913
              Bcc     0.0350     4.700     1.677     1.568  0.9827  0.0842 -0.1650
 
              Baa    -0.0953   -12.791    -4.564    -4.267 -0.3037  0.9252  0.2275
     8 C(13)  Bbb    -0.0867   -11.628    -4.149    -3.879  0.9354  0.3349 -0.1133
              Bcc     0.1820    24.419     8.713     8.145  0.1810 -0.1784  0.9672
 
              Baa    -0.0607    -8.151    -2.909    -2.719  0.1816 -0.1858  0.9657
     9 C(13)  Bbb     0.0253     3.391     1.210     1.131 -0.5098  0.8220  0.2540
              Bcc     0.0355     4.760     1.699     1.588  0.8409  0.5384 -0.0545
 
              Baa    -0.0121    -6.431    -2.295    -2.145  0.5801  0.8095  0.0906
    10 H(1)   Bbb    -0.0041    -2.168    -0.774    -0.723  0.1671 -0.2272  0.9594
              Bcc     0.0161     8.600     3.069     2.869  0.7972 -0.5414 -0.2671
 
              Baa    -0.0099    -5.269    -1.880    -1.758  0.9853 -0.0783 -0.1520
    11 H(1)   Bbb    -0.0042    -2.242    -0.800    -0.748  0.1358 -0.1815  0.9740
              Bcc     0.0141     7.511     2.680     2.505  0.1038  0.9803  0.1682
 
              Baa    -0.0052    -2.780    -0.992    -0.927  0.1743 -0.1970  0.9648
    12 H(1)   Bbb     0.0021     1.099     0.392     0.367  0.4646  0.8803  0.0958
              Bcc     0.0031     1.680     0.600     0.560  0.8682 -0.4316 -0.2449
 
              Baa    -0.0027    -1.417    -0.506    -0.473  0.1769 -0.1841  0.9669
    13 H(1)   Bbb    -0.0012    -0.631    -0.225    -0.210 -0.1158  0.9716  0.2062
              Bcc     0.0038     2.048     0.731     0.683  0.9774  0.1484 -0.1505
 
              Baa    -0.0131    -7.000    -2.498    -2.335 -0.2968  0.9281  0.2249
    14 H(1)   Bbb    -0.0013    -0.678    -0.242    -0.226  0.1816 -0.1763  0.9674
              Bcc     0.0144     7.678     2.740     2.561  0.9375  0.3279 -0.1162
 
              Baa    -0.2927   -11.288    -4.028    -3.765 -0.4056  0.8792  0.2498
    15 N(14)  Bbb    -0.2865   -11.051    -3.943    -3.686  0.9050  0.4246 -0.0250
              Bcc     0.5792    22.339     7.971     7.451  0.1281 -0.2159  0.9680
 
              Baa    -0.1339    -5.165    -1.843    -1.723 -0.6832  0.6861  0.2500
    16 N(14)  Bbb    -0.1273    -4.909    -1.752    -1.638  0.7087  0.7055  0.0007
              Bcc     0.2612    10.074     3.595     3.360  0.1759 -0.1777  0.9682
 
              Baa    -0.1236    -4.766    -1.701    -1.590  0.1038  0.9824  0.1553
    17 N(14)  Bbb    -0.1176    -4.535    -1.618    -1.513  0.9787 -0.0730 -0.1921
              Bcc     0.2412     9.301     3.319     3.103  0.1774 -0.1719  0.9690
 
              Baa    -0.0016    -0.214    -0.076    -0.071  0.1104 -0.2308  0.9667
    18 C(13)  Bbb    -0.0006    -0.077    -0.027    -0.026  0.6302  0.7684  0.1115
              Bcc     0.0022     0.291     0.104     0.097  0.7686 -0.5969 -0.2302
 
              Baa    -0.0038    -0.148    -0.053    -0.050  0.7632 -0.4480  0.4655
    19 N(14)  Bbb     0.0012     0.048     0.017     0.016 -0.6323 -0.3697  0.6808
              Bcc     0.0026     0.101     0.036     0.034  0.1329  0.8140  0.5655
 
              Baa    -0.0010    -0.037    -0.013    -0.012  0.0727 -0.1558  0.9851
    20 N(14)  Bbb    -0.0007    -0.029    -0.010    -0.010  0.5195  0.8491  0.0959
              Bcc     0.0017     0.066     0.023     0.022  0.8514 -0.5048 -0.1427
 
              Baa    -0.0010    -0.136    -0.048    -0.045 -0.0486  0.8660  0.4976
    21 C(13)  Bbb    -0.0001    -0.008    -0.003    -0.003 -0.2274 -0.4947  0.8388
              Bcc     0.0011     0.144     0.051     0.048  0.9726 -0.0724  0.2210
 
              Baa    -0.0003    -0.037    -0.013    -0.012  0.0547  0.9685  0.2428
    22 C(13)  Bbb    -0.0003    -0.034    -0.012    -0.011 -0.0644 -0.2392  0.9688
              Bcc     0.0005     0.071     0.025     0.024  0.9964 -0.0686  0.0493
 
              Baa    -0.0002    -0.021    -0.007    -0.007 -0.0081  0.3467  0.9380
    23 C(13)  Bbb    -0.0001    -0.020    -0.007    -0.007  0.1297  0.9304 -0.3428
              Bcc     0.0003     0.041     0.014     0.014  0.9915 -0.1188  0.0525
 
              Baa    -0.0001    -0.004    -0.002    -0.001 -0.0244  0.1573  0.9873
    24 N(14)  Bbb    -0.0001    -0.004    -0.001    -0.001  0.1248  0.9803 -0.1531
              Bcc     0.0002     0.008     0.003     0.003  0.9919 -0.1194  0.0436
 
              Baa    -0.0065    -0.877    -0.313    -0.292  0.1276 -0.2194  0.9673
    25 C(13)  Bbb    -0.0044    -0.589    -0.210    -0.197 -0.3983  0.8818  0.2525
              Bcc     0.0109     1.466     0.523     0.489  0.9083  0.4175 -0.0251
 
              Baa    -0.0045    -2.381    -0.850    -0.794  0.0592  0.7067  0.7051
    26 H(1)   Bbb    -0.0035    -1.849    -0.660    -0.617 -0.3274  0.6810 -0.6551
              Bcc     0.0079     4.230     1.509     1.411  0.9430  0.1920 -0.2716
 
              Baa    -0.0046    -2.431    -0.867    -0.811 -0.1308 -0.3936  0.9099
    27 H(1)   Bbb    -0.0030    -1.587    -0.566    -0.529 -0.3863  0.8655  0.3189
              Bcc     0.0075     4.018     1.434     1.340  0.9131  0.3098  0.2652
 
              Baa    -0.0044    -2.322    -0.829    -0.775 -0.6989  0.7081 -0.1005
    28 H(1)   Bbb    -0.0035    -1.857    -0.663    -0.619 -0.0159  0.1251  0.9920
              Bcc     0.0078     4.179     1.491     1.394  0.7150  0.6950 -0.0762
 
              Baa    -0.0036    -0.486    -0.173    -0.162  0.1799 -0.2193  0.9589
    29 C(13)  Bbb     0.0001     0.011     0.004     0.004  0.9683  0.2115 -0.1333
              Bcc     0.0035     0.475     0.169     0.158 -0.1736  0.9525  0.2503
 
              Baa    -0.0032    -1.690    -0.603    -0.564  0.2895 -0.4361  0.8521
    30 H(1)   Bbb    -0.0003    -0.155    -0.055    -0.052  0.9314  0.3336 -0.1458
              Bcc     0.0035     1.845     0.658     0.615 -0.2207  0.8358  0.5027
 
              Baa    -0.0032    -1.705    -0.608    -0.569  0.0456  0.0580  0.9973
    31 H(1)   Bbb    -0.0003    -0.140    -0.050    -0.047  0.9471  0.3149 -0.0616
              Bcc     0.0035     1.845     0.658     0.615 -0.3176  0.9474 -0.0406
 
              Baa    -0.0026    -1.398    -0.499    -0.466  0.1694 -0.2020  0.9646
    32 H(1)   Bbb    -0.0014    -0.773    -0.276    -0.258  0.9733  0.1882 -0.1315
              Bcc     0.0041     2.170     0.774     0.724 -0.1550  0.9611  0.2285
 
              Baa    -0.0012    -0.158    -0.057    -0.053 -0.2814  0.1211  0.9519
    33 C(13)  Bbb    -0.0001    -0.017    -0.006    -0.006  0.3965  0.9180  0.0004
              Bcc     0.0013     0.176     0.063     0.059  0.8738 -0.3776  0.3064
 
              Baa    -0.0011    -0.612    -0.218    -0.204 -0.1976  0.2991  0.9335
    34 H(1)   Bbb    -0.0007    -0.375    -0.134    -0.125  0.5757  0.8062 -0.1365
              Bcc     0.0018     0.987     0.352     0.329  0.7935 -0.5104  0.3315
 
              Baa    -0.0005    -0.275    -0.098    -0.092 -0.2085  0.2007  0.9572
    35 H(1)   Bbb    -0.0003    -0.179    -0.064    -0.060  0.5164  0.8538 -0.0665
              Bcc     0.0009     0.454     0.162     0.152  0.8306 -0.4804  0.2817
 
              Baa    -0.0009    -0.479    -0.171    -0.160 -0.2528  0.5323  0.8079
    36 H(1)   Bbb    -0.0005    -0.251    -0.089    -0.084  0.5752  0.7541 -0.3169
              Bcc     0.0014     0.730     0.260     0.243  0.7780 -0.3846  0.4968
 
              Baa    -0.0003    -0.136    -0.048    -0.045 -0.1244  0.8976  0.4229
    37 H(1)   Bbb    -0.0002    -0.130    -0.046    -0.043 -0.0935 -0.4349  0.8956
              Bcc     0.0005     0.266     0.095     0.089  0.9878  0.0718  0.1380
 
              Baa    -0.0003    -0.153    -0.055    -0.051  0.0768 -0.4417  0.8939
    38 H(1)   Bbb    -0.0003    -0.150    -0.053    -0.050  0.0577  0.8970  0.4382
              Bcc     0.0006     0.302     0.108     0.101  0.9954 -0.0179 -0.0944
 
              Baa    -0.0004    -0.219    -0.078    -0.073 -0.2160  0.1988  0.9559
    39 H(1)   Bbb    -0.0003    -0.162    -0.058    -0.054  0.2776  0.9512 -0.1351
              Bcc     0.0007     0.382     0.136     0.127  0.9361 -0.2362  0.2606
 
              Baa    -0.0013    -0.677    -0.242    -0.226  0.3714 -0.2705  0.8882
    40 H(1)   Bbb    -0.0003    -0.157    -0.056    -0.052  0.5502  0.8347  0.0241
              Bcc     0.0016     0.834     0.298     0.278  0.7479 -0.4797 -0.4588
 
              Baa    -0.0016    -0.845    -0.301    -0.282  0.1437 -0.2485  0.9579
    41 H(1)   Bbb    -0.0011    -0.613    -0.219    -0.205  0.5586  0.8194  0.1287
              Bcc     0.0027     1.458     0.520     0.486  0.8169 -0.5166 -0.2566
 

 ---------------------------------------------------------------------------------

 1|1|UNPC-NAAC4|FOpt|UB3LYP|6-31G|C16H19N6(2)|123|06-Mar-2025|0||# opt 
 b3lyp/6-31g geom=connectivity||Title Card Required||0,2|C,-3.456663237
 4,-0.3636683907,0.2128503077|C,-2.0866544131,-0.010950852,-0.108103670
 1|C,-1.4197097288,0.8726802848,0.7078953806|C,-3.3006742843,1.12500748
 06,2.1608264464|C,-4.0083274052,0.2541679494,1.3890521726|C,-4.2919249
 043,-1.2654438716,-0.5368593642|C,-4.6514106514,-2.695469365,-2.336277
 5523|C,-5.958333942,-2.9588536053,-1.9137198106|C,-6.37897073,-2.31143
 55152,-0.7362556001|H,-0.396247633,1.1617927313,0.5052759362|H,-3.7081
 558033,1.5970154377,3.0452989077|H,-5.0262618257,0.0059993498,1.655959
 2041|H,-4.2511067011,-3.1562034798,-3.2352657048|H,-6.616966923,-3.624
 6011976,-2.4568993083|N,-1.9864688508,1.4503013587,1.8419130181|N,-3.8
 215662463,-1.8705548321,-1.6771811482|N,-5.5700344749,-1.4871284006,-0
 .0561723406|C,-7.771301909,-2.5238179857,-0.1659200719|N,-8.0608144364
 ,-3.9203117438,0.1688417976|N,-8.7481950356,-4.6232089405,-0.764916509
 1|C,-8.915350548,-5.9071913791,-0.675375492|C,-9.7126824575,-6.5972244
 768,-1.7594642969|C,-10.8708279322,-7.3337480966,-1.23525402|N,-11.782
 4621167,-7.9234745653,-0.7932579654|C,-1.2497324046,2.4589329315,2.604
 5758425|H,-0.190031628,2.1922891609,2.6449688718|H,-1.3446913508,3.456
 559746,2.1555731484|H,-1.6348399184,2.4964513562,3.6262247914|C,-1.323
 4182418,-0.5575835244,-1.2933508658|H,-1.2624185503,-1.6486093378,-1.2
 612043367|H,-1.8253343984,-0.3216005586,-2.2351416203|H,-0.3088104564,
 -0.1438203308,-1.3146213753|C,-7.3600984422,-4.5716486011,1.2716342127
 |H,-6.8555198572,-3.8062206429,1.8624477027|H,-8.0662779456,-5.1094614
 223,1.9172366192|H,-6.6061295211,-5.2880949491,0.9109152077|H,-9.08220
 16586,-7.3052759928,-2.3183170803|H,-10.053237551,-5.8354990968,-2.469
 9390354|H,-8.5253165403,-6.5244078432,0.1326257285|H,-8.5335734763,-2.
 220326065,-0.8886008049|H,-7.8660289492,-1.9043657245,0.7304544777||Ve
 rsion=EM64W-G09RevD.01|State=2-A|HF=-949.2800124|S2=0.763815|S2-1=0.|S
 2A=0.750163|RMSD=6.154e-009|RMSF=2.889e-006|Dipole=2.6688703,1.9785835
 ,0.9687149|Quadrupole=-15.756952,2.7651419,12.9918101,-9.3208682,7.933
 7166,11.8453779|PG=C01 [X(C16H19N6)]||@


 THE MORE POWERFUL THE METHOD, THE MORE CATASTROPHIC THE ERRORS.
     -- M.D. KAMEN
 Job cpu time:       0 days  5 hours 19 minutes 44.0 seconds.
 File lengths (MBytes):  RWF=     64 Int=      0 D2E=      0 Chk=      7 Scr=      1
 Normal termination of Gaussian 09 at Thu Mar 06 07:56:21 2025.
