 Entering Gaussian System, Link 0=C:\G09W\g09.exe
 Input=C:\Users\123\Downloads\leemol\christy\TDDFT\mo56.gjf
 Output=C:\Users\123\Downloads\leemol\christy\TDDFT\mo56.log
 Initial command:
 C:/G09W\l1.exe ".\Gau-2176.inp" "C:\Users\123\Downloads\leemol\christy\TDDFT\mo56.log" /scrdir=".\"
 Entering Link 1 = C:/G09W\l1.exe PID=      3608.
  
 Copyright (c) 1988,1990,1992,1993,1995,1998,2003,2009,2013,
            Gaussian, Inc.  All Rights Reserved.
  
 This is part of the Gaussian(R) 09 program.  It is based on
 the Gaussian(R) 03 system (copyright 2003, Gaussian, Inc.),
 the Gaussian(R) 98 system (copyright 1998, Gaussian, Inc.),
 the Gaussian(R) 94 system (copyright 1995, Gaussian, Inc.),
 the Gaussian 92(TM) system (copyright 1992, Gaussian, Inc.),
 the Gaussian 90(TM) system (copyright 1990, Gaussian, Inc.),
 the Gaussian 88(TM) system (copyright 1988, Gaussian, Inc.),
 the Gaussian 86(TM) system (copyright 1986, Carnegie Mellon
 University), and the Gaussian 82(TM) system (copyright 1983,
 Carnegie Mellon University). Gaussian is a federally registered
 trademark of Gaussian, Inc.
  
 This software contains proprietary and confidential information,
 including trade secrets, belonging to Gaussian, Inc.
  
 This software is provided under written license and may be
 used, copied, transmitted, or stored only in accord with that
 written license.
  
 The following legend is applicable only to US Government
 contracts under FAR:
  
                    RESTRICTED RIGHTS LEGEND
  
 Use, reproduction and disclosure by the US Government is
 subject to restrictions as set forth in subparagraphs (a)
 and (c) of the Commercial Computer Software - Restricted
 Rights clause in FAR 52.227-19.
  
 Gaussian, Inc.
 340 Quinnipiac St., Bldg. 40, Wallingford CT 06492
  
  
 ---------------------------------------------------------------
 Warning -- This program may not be used in any manner that
 competes with the business of Gaussian, Inc. or will provide
 assistance to any competitor of Gaussian, Inc.  The licensee
 of this program is prohibited from giving any competitor of
 Gaussian, Inc. access to this program.  By using this program,
 the user acknowledges that Gaussian, Inc. is engaged in the
 business of creating and licensing software in the field of
 computational chemistry and represents and warrants to the
 licensee that it is not a competitor of Gaussian, Inc. and that
 it will not use this program in any manner prohibited above.
 ---------------------------------------------------------------
  

 Cite this work as:
 Gaussian 09, Revision D.01,
 M. J. Frisch, G. W. Trucks, H. B. Schlegel, G. E. Scuseria, 
 M. A. Robb, J. R. Cheeseman, G. Scalmani, V. Barone, B. Mennucci, 
 G. A. Petersson, H. Nakatsuji, M. Caricato, X. Li, H. P. Hratchian, 
 A. F. Izmaylov, J. Bloino, G. Zheng, J. L. Sonnenberg, M. Hada, 
 M. Ehara, K. Toyota, R. Fukuda, J. Hasegawa, M. Ishida, T. Nakajima, 
 Y. Honda, O. Kitao, H. Nakai, T. Vreven, J. A. Montgomery, Jr., 
 J. E. Peralta, F. Ogliaro, M. Bearpark, J. J. Heyd, E. Brothers, 
 K. N. Kudin, V. N. Staroverov, T. Keith, R. Kobayashi, J. Normand, 
 K. Raghavachari, A. Rendell, J. C. Burant, S. S. Iyengar, J. Tomasi, 
 M. Cossi, N. Rega, J. M. Millam, M. Klene, J. E. Knox, J. B. Cross, 
 V. Bakken, C. Adamo, J. Jaramillo, R. Gomperts, R. E. Stratmann, 
 O. Yazyev, A. J. Austin, R. Cammi, C. Pomelli, J. W. Ochterski, 
 R. L. Martin, K. Morokuma, V. G. Zakrzewski, G. A. Voth, 
 P. Salvador, J. J. Dannenberg, S. Dapprich, A. D. Daniels, 
 O. Farkas, J. B. Foresman, J. V. Ortiz, J. Cioslowski, 
 and D. J. Fox, Gaussian, Inc., Wallingford CT, 2013.
 
 ******************************************
 Gaussian 09:  EM64W-G09RevD.01 13-Apr-2013
                05-Mar-2025 
 ******************************************
 %chk=C:\Users\123\Downloads\leemol\christy\TDDFT\mo56.chk
 ----------------------------------------------------
 # td=(50-50,nstates=3) b3lyp/6-31g geom=connectivity
 ----------------------------------------------------
 1/38=1,57=2/1;
 2/12=2,17=6,18=5,40=1/2;
 3/5=1,6=6,11=9,16=1,25=1,30=1,74=-5/1,2,8,3;
 4//1;
 5/5=2,38=5/2;
 8/6=1,10=2,108=3/1;
 9/41=3,42=1,48=2,70=2/14;
 6/7=2,8=2,9=2,10=2/1;
 99/5=1,9=1/99;
 -------------------
 Title Card Required
 -------------------
 Symbolic Z-matrix:
 Charge =  0 Multiplicity = 1
 C                    -1.65981  -1.95217  -0.22372 
 H                    -1.46691  -3.02374  -0.24674 
 C                    -0.62807   0.33369  -0.11049 
 C                     0.48538   1.08956  -0.01975 
 C                     1.8822   -0.90523  -0.02927 
 C                     0.78281  -1.68048  -0.12508 
 C                    -0.57466  -1.1298   -0.1574 
 H                    -1.60113   0.79763  -0.18488 
 O                     1.76394   0.49576   0.03688 
 C                    -0.80467   3.25752  -0.02562 
 C                     0.59377   2.60582   0.03199 
 H                    -1.33179   2.99688  -0.94984 
 H                    -1.42594   2.94861   0.82212 
 H                    -0.70011   4.34761   0.01009 
 C                     1.29633   3.02379   1.35286 
 C                     1.4364    3.10068  -1.17559 
 H                     2.29095   2.57503   1.42514 
 H                     1.40232   4.11452   1.39098 
 H                     0.70996   2.70476   2.22224 
 H                     1.54169   4.19143  -1.13588 
 H                     2.43484   2.6546   -1.16411 
 H                     0.95139   2.83645  -2.12238 
 C                     3.47256  -2.86699  -0.04997 
 C                     3.34167  -1.3307    0.02863 
 H                     4.53124  -3.14547  -0.00623 
 H                     2.96101  -3.35712   0.78604 
 H                     3.05983  -3.25782  -0.98683 
 C                     3.96442  -0.83459   1.36252 
 C                     4.10723  -0.69306  -1.16297 
 H                     5.02522  -1.10881   1.40446 
 H                     3.88217   0.25227   1.45028 
 H                     3.45699  -1.2891    2.22119 
 H                     3.70199  -1.04479  -2.11871 
 H                     4.02954   0.39731  -1.13691 
 H                     5.16757  -0.9684   -1.11645 
 H                     0.8975   -2.75604  -0.17228 
 C                    -4.9656   -0.32324   0.85047 
 C                    -4.87584  -0.04075  -0.67805 
 C                    -3.11945  -1.57964  -0.20895 
 C                    -3.71126  -1.187     1.17966 
 H                    -4.95496   0.6091    1.4238 
 H                    -5.89735  -0.84448   1.09335 
 H                    -5.0902    1.00243  -0.93129 
 H                    -5.60699  -0.67349  -1.21607 
 H                    -3.26048  -0.4486   -1.9956 
 H                    -3.6874   -2.46467  -0.56459 
 H                    -3.94784  -2.07254   1.77761 
 H                    -2.967    -0.60042   1.72649 
 N                    -3.47973  -0.38052  -1.00509 
 
                          Input orientation:                          
 ---------------------------------------------------------------------
 Center     Atomic      Atomic             Coordinates (Angstroms)
 Number     Number       Type             X           Y           Z
 ---------------------------------------------------------------------
      1          6           0       -1.659813   -1.952173   -0.223715
      2          1           0       -1.466908   -3.023742   -0.246740
      3          6           0       -0.628066    0.333688   -0.110486
      4          6           0        0.485384    1.089558   -0.019749
      5          6           0        1.882197   -0.905230   -0.029270
      6          6           0        0.782806   -1.680476   -0.125083
      7          6           0       -0.574657   -1.129796   -0.157402
      8          1           0       -1.601133    0.797630   -0.184883
      9          8           0        1.763937    0.495763    0.036879
     10          6           0       -0.804667    3.257516   -0.025623
     11          6           0        0.593774    2.605817    0.031986
     12          1           0       -1.331789    2.996878   -0.949844
     13          1           0       -1.425943    2.948613    0.822124
     14          1           0       -0.700106    4.347609    0.010093
     15          6           0        1.296325    3.023787    1.352863
     16          6           0        1.436399    3.100685   -1.175588
     17          1           0        2.290954    2.575031    1.425137
     18          1           0        1.402318    4.114518    1.390981
     19          1           0        0.709958    2.704760    2.222243
     20          1           0        1.541689    4.191427   -1.135878
     21          1           0        2.434841    2.654596   -1.164113
     22          1           0        0.951394    2.836454   -2.122384
     23          6           0        3.472560   -2.866986   -0.049972
     24          6           0        3.341666   -1.330704    0.028627
     25          1           0        4.531235   -3.145472   -0.006226
     26          1           0        2.961007   -3.357121    0.786035
     27          1           0        3.059834   -3.257819   -0.986827
     28          6           0        3.964424   -0.834585    1.362516
     29          6           0        4.107232   -0.693060   -1.162965
     30          1           0        5.025219   -1.108814    1.404462
     31          1           0        3.882167    0.252272    1.450275
     32          1           0        3.456992   -1.289102    2.221191
     33          1           0        3.701985   -1.044794   -2.118707
     34          1           0        4.029536    0.397314   -1.136908
     35          1           0        5.167570   -0.968402   -1.116454
     36          1           0        0.897504   -2.756043   -0.172282
     37          6           0       -4.965597   -0.323240    0.850468
     38          6           0       -4.875841   -0.040754   -0.678045
     39          6           0       -3.119445   -1.579644   -0.208950
     40          6           0       -3.711262   -1.186997    1.179658
     41          1           0       -4.954964    0.609104    1.423796
     42          1           0       -5.897351   -0.844481    1.093347
     43          1           0       -5.090201    1.002428   -0.931286
     44          1           0       -5.606988   -0.673492   -1.216066
     45          1           0       -3.260484   -0.448599   -1.995597
     46          1           0       -3.687400   -2.464673   -0.564592
     47          1           0       -3.947844   -2.072542    1.777611
     48          1           0       -2.967003   -0.600415    1.726490
     49          7           0       -3.479728   -0.380523   -1.005092
 ---------------------------------------------------------------------
                    Distance matrix (angstroms):
                    1          2          3          4          5
     1  C    0.000000
     2  H    1.089037   0.000000
     3  C    2.510475   3.463316   0.000000
     4  C    3.727680   4.558750   1.348830   0.000000
     5  C    3.698612   3.968865   2.800524   2.435232   0.000000
     6  C    2.459662   2.623047   2.459193   2.787946   1.348646
     7  C    1.363182   2.095501   1.465210   2.463365   2.470421
     8  H    2.750703   3.824229   1.080572   2.113302   3.880404
     9  O    4.216914   4.785991   2.402012   1.410850   1.407531
    10  C    5.283122   6.319941   2.930386   2.522758   4.954564
    11  C    5.091101   6.001336   2.583749   1.521008   3.740486
    12  H    5.012781   6.063042   2.879640   2.793754   5.138444
    13  H    5.016590   6.067386   2.888633   2.796070   5.149832
    14  H    6.376751   7.415576   4.016378   3.467156   5.853388
    15  C    5.998711   6.838625   3.616808   2.506578   4.206033
    16  C    6.001997   6.841093   3.612856   2.506995   4.190482
    17  H    6.230798   6.947155   3.987786   2.748528   3.794021
    18  H    6.984886   7.865707   4.546596   3.461403   5.238823
    19  H    5.769363   6.606842   3.585236   2.772335   4.413104
    20  H    6.987523   7.867712   4.543282   3.461664   5.226513
    21  H    6.234810   6.950449   3.984739   2.749417   3.776989
    22  H    5.775318   6.611212   3.578584   2.773064   4.387222
    23  C    5.216160   4.945870   5.202222   4.957658   2.525504
    24  C    5.046255   5.105349   4.306777   3.744109   1.521325
    25  H    6.308751   6.004197   6.223649   5.857011   3.469383
    26  H    4.934111   4.558969   5.225635   5.152762   2.800058
    27  H    4.956018   4.592811   5.221829   5.144193   2.799718
    28  C    5.949552   6.073012   4.962415   4.209121   2.505540
    29  C    5.977154   6.110858   4.958323   4.195528   2.506205
    30  H    6.931945   6.967146   6.027894   5.241309   3.460581
    31  H    6.194785   6.498056   4.773343   3.794753   2.743856
    32  H    5.709547   5.774465   4.975727   4.417045   2.773430
    33  H    5.758751   5.842769   4.968149   4.394042   2.774320
    34  H    6.222757   6.535053   4.769785   3.779981   2.744913
    35  H    6.955426   6.999795   6.024683   5.230758   3.461161
    36  H    2.681179   2.380683   3.446392   3.870627   2.101329
    37  C    3.838685   4.553834   4.491009   5.697936   6.928559
    38  C    3.768657   4.550282   4.301851   5.518486   6.843925
    39  C    1.506493   2.194932   3.142850   4.489457   5.050103
    40  C    2.600652   3.231930   3.671928   4.922714   5.729545
    41  H    4.486920   5.306109   4.599122   5.649075   7.152019
    42  H    4.573660   5.116037   5.531967   6.761568   7.860364
    43  H    4.582345   5.459570   4.586019   5.650278   7.284719
    44  H    4.266143   4.858346   5.198691   6.454186   7.586177
    45  H    2.821781   3.592600   3.330952   4.505711   5.524683
    46  H    2.118953   2.311747   4.170918   5.508315   5.808515
    47  H    3.042183   3.340333   4.513954   5.734360   6.214243
    48  H    2.709113   3.466473   3.117315   4.221888   5.166270
    49  N    2.528384   3.407807   3.072848   4.342137   5.475197
                    6          7          8          9         10
     6  C    0.000000
     7  C    1.465264   0.000000
     8  H    3.439150   2.183891   0.000000
     9  O    2.392669   2.854682   3.385853   0.000000
    10  C    5.187844   4.395313   2.590514   3.772123   0.000000
    11  C    4.293333   3.918661   2.852050   2.412806   1.543913
    12  H    5.198979   4.269737   2.344014   4.100331   1.095433
    13  H    5.215768   4.279904   2.381487   4.099807   1.095482
    14  H    6.209276   5.481401   3.667726   4.572630   1.095679
    15  C    4.957632   4.799346   3.964303   2.888145   2.523692
    16  C    4.938648   4.793539   3.938548   2.891881   2.523765
    17  H    4.773576   4.943875   4.571615   2.555066   3.486167
    18  H    6.021976   5.814529   4.744029   3.880689   2.758986
    19  H    4.974489   4.692203   3.843506   3.281212   2.766321
    20  H    6.006401   5.809626   4.722243   3.883643   2.758667
    21  H    4.754120   4.938843   4.549319   2.559893   3.486271
    22  H    4.941689   4.682000   3.798172   3.286560   2.767210
    23  C    2.940786   4.405603   6.260189   3.772932   7.470260
    24  C    2.587225   3.925883   5.385783   2.413561   6.184398
    25  H    4.026296   5.491442   7.292867   4.573662   8.334895
    26  H    2.895830   4.283920   6.246420   4.103526   7.654575
    27  H    2.900943   4.292546   6.230120   4.100817   7.635959
    28  C    3.612641   4.795890   6.002832   2.892971   6.435561
    29  C    3.619944   4.808532   5.980320   2.888591   6.405260
    30  H    4.545808   5.813645   7.075951   3.883415   7.422772
    31  H    3.977852   4.935384   5.747846   2.558100   5.759877
    32  H    3.579029   4.683725   5.977313   3.289893   6.624322
    33  H    3.591690   4.705700   5.937783   3.282666   6.572730
    34  H    3.985255   4.948746   5.724599   2.553509   5.725839
    35  H    4.551486   5.824002   7.057056   3.880551   7.397020
    36  H    1.082695   2.193663   4.344184   3.371750   6.251543
    37  C    5.986479   4.576755   3.694309   6.827834   5.559019
    38  C    5.917326   4.467356   3.416110   6.699673   5.280028
    39  C    3.904454   2.584757   2.820866   5.311795   5.365624
    40  C    4.705584   3.410175   3.202087   5.840841   5.445612
    41  H    6.368925   4.971021   3.724456   6.861488   5.132238
    42  H    6.841634   5.475112   4.773666   7.849058   6.634298
    43  H    6.506931   5.053258   3.573885   6.940696   4.926606
    44  H    6.560010   5.162687   4.390263   7.567534   6.319198
    45  H    4.622179   3.325155   2.754127   5.501598   4.862831
    46  H    4.559701   3.411286   3.890927   6.232417   6.429937
    47  H    5.114001   4.001429   4.194797   6.500060   6.445210
    48  H    4.319250   3.090730   2.733766   5.141808   4.757019
    49  N    4.542410   3.117599   2.364298   5.417527   4.620675
                   11         12         13         14         15
    11  C    0.000000
    12  H    2.196523   0.000000
    13  H    2.195697   1.775124   0.000000
    14  H    2.169895   1.773408   1.772970   0.000000
    15  C    1.553381   3.494305   2.774541   2.746138   0.000000
    16  C    1.553430   2.779317   3.493849   2.743230   2.533495
    17  H    2.195959   4.352328   3.783981   3.753774   1.093569
    18  H    2.185587   3.768809   3.111590   2.526137   1.096532
    19  H    2.195567   3.783675   2.565516   3.095293   1.096096
    20  H    2.185545   3.117440   3.766324   2.522556   2.759967
    21  H    2.196033   3.788215   4.351694   3.751392   2.787057
    22  H    2.195995   2.571675   3.786085   3.091682   3.497344
    23  C    6.184311   7.633901   7.653566   8.334574   6.434683
    24  C    4.800742   6.444110   6.455408   6.969900   4.989851
    25  H    6.970106   8.543648   8.562243   9.138570   7.097290
    26  H    6.459800   7.862231   7.681726   8.565553   6.618795
    27  H    6.442178   7.642575   7.868564   8.542455   6.931283
    28  C    4.996795   6.933757   6.607622   7.102255   4.691043
    29  C    4.965369   6.576018   6.915084   7.063633   5.295804
    30  H    5.943053   7.925340   7.643253   8.030950   5.566480
    31  H    4.285353   6.362293   5.986724   6.312142   3.791749
    32  H    5.306697   7.166415   6.615034   7.344585   4.901376
    33  H    5.254847   6.560506   7.133823   7.279300   5.864499
    34  H    4.248324   5.961253   6.333181   6.268170   4.535170
    35  H    5.917226   7.615305   7.910468   7.997419   6.084541
    36  H    5.374339   6.218557   6.239419   7.283371   5.990957
    37  C    6.336868   5.241075   4.820267   6.381025   7.118052
    38  C    6.117611   4.675616   4.805062   6.096559   7.184124
    39  C    5.600369   4.968822   4.943296   6.405740   6.567333
    40  C    5.851147   5.263220   4.738542   6.408339   6.544970
    41  H    6.059083   4.946011   4.276599   5.837704   6.701816
    42  H    7.427365   6.306744   5.869805   7.425806   8.171892
    43  H    5.983838   4.254860   4.504317   5.599050   7.077496
    44  H    7.124672   5.640906   5.895337   7.126880   8.241662
    45  H    5.319385   4.084700   4.779764   5.794993   6.635824
    46  H    6.662899   5.960358   6.028336   7.460655   7.657502
    47  H    6.749855   6.323114   5.699556   7.408796   7.324909
    48  H    5.082362   4.772547   3.973455   5.706819   5.608066
    49  N    5.156275   4.002940   4.317395   5.577825   6.321389
                   16         17         18         19         20
    16  C    0.000000
    17  H    2.787534   0.000000
    18  H    2.759764   1.777881   0.000000
    19  H    3.497103   1.775319   1.777013   0.000000
    20  H    1.096531   3.119765   2.531868   3.765492   0.000000
    21  H    1.093624   2.594465   3.118651   3.800677   1.777742
    22  H    1.096116   3.801009   3.765702   4.353323   1.776962
    23  C    6.405159   5.760876   7.423183   6.621124   7.397881
    24  C    4.971658   4.278902   5.938646   5.293657   5.923675
    25  H    7.068231   6.308075   8.028061   7.334402   8.002724
    26  H    6.919223   6.003986   7.656426   6.623920   7.917625
    27  H    6.565192   6.358529   7.921659   7.167454   7.603831
    28  C    5.321582   3.798671   5.573044   4.884429   6.113298
    29  C    4.639613   4.547258   6.078816   5.877609   5.517332
    30  H    6.103783   4.587739   6.356791   5.816665   6.832340
    31  H    4.581527   2.815635   4.590219   4.083325   5.261461
    32  H    5.906872   4.113985   5.840380   4.847384   6.706303
    33  H    4.817401   5.258609   6.650179   6.469562   5.748986
    34  H    3.746207   3.785392   5.206736   5.256215   4.537034
    35  H    5.521105   5.224033   6.804442   6.671531   6.306443
    36  H    5.966431   5.737055   7.064222   5.965676   7.043496
    37  C    7.537488   7.835034   7.780501   6.577422   8.165327
    38  C    7.068279   7.913827   7.807844   6.866634   7.701017
    39  C    6.602695   7.014555   7.445106   6.239483   7.476003
    40  C    7.101395   7.087998   7.368814   5.981634   7.866552
    41  H    7.335823   7.507876   7.259755   6.092670   7.848023
    42  H    8.631123   8.879836   8.829803   7.584725   9.255762
    43  H    6.859947   7.906153   7.565106   6.817956   7.361626
    44  H    7.990954   8.939035   8.879871   7.945965   8.647396
    45  H    5.943950   7.187644   7.350692   6.595321   6.732743
    46  H    7.589456   8.068355   8.544896   7.336637   8.483714
    47  H    8.029554   7.787604   8.188616   6.686960   8.823871
    48  H    6.442837   6.149828   6.436934   4.968903   7.175180
    49  N    6.026291   6.924022   7.055560   6.122755   6.792235
                   21         22         23         24         25
    21  H    0.000000
    22  H    1.775379   0.000000
    23  C    5.727656   6.571179   0.000000
    24  C    4.257649   5.263597   1.543850   0.000000
    25  H    6.275058   7.285384   1.095564   2.170178   0.000000
    26  H    6.341977   7.131467   1.095822   2.196573   1.771465
    27  H    5.947999   6.547914   1.095806   2.196440   1.771785
    28  C    4.571418   5.890620   2.523431   1.553455   2.744982
    29  C    3.742151   4.830866   2.523394   1.553246   2.744476
    30  H    5.241268   6.678311   2.759945   2.185522   2.526269
    31  H    3.834180   5.294461   3.485440   2.195231   3.753312
    32  H    5.296964   6.493449   2.765527   2.195989   3.092167
    33  H    4.025219   4.757084   2.766348   2.196046   3.092423
    34  H    2.763895   4.049139   3.485299   2.194922   3.752529
    35  H    4.538303   5.767579   2.759541   2.185497   2.525304
    36  H    5.711580   5.922991   2.580345   2.836527   3.658310
    37  C    8.227547   7.337050   8.859116   8.408390   9.944282
    38  C    7.806872   6.657410   8.836168   8.348100   9.928932
    39  C    7.049200   6.303561   6.718412   6.470268   7.811902
    40  C    7.617459   6.987990   7.479415   7.147679   8.554572
    41  H    8.092622   7.240272   9.234628   8.633853  10.301931
    42  H    9.314778   8.414007   9.653649   9.312866  10.735876
    43  H    7.707796   6.425203   9.437688   8.801211  10.518215
    44  H    8.703441   7.493564   9.413256   9.058675  10.505140
    45  H    6.538953   5.342992   7.414036   6.961607   8.481840
    46  H    8.003010   7.214366   7.189695   7.144618   8.265665
    47  H    8.469843   7.956804   7.683332   7.533009   8.730867
    48  H    6.937622   6.479177   7.054157   6.573839   8.105751
    49  N    6.649764   5.588571   7.445070   6.964398   8.533358
                   26         27         28         29         30
    26  H    0.000000
    27  H    1.778389   0.000000
    28  C    2.775313   3.494247   0.000000
    29  C    3.494231   2.775978   2.533471   0.000000
    30  H    3.114211   3.768186   1.096470   2.758121   0.000000
    31  H    3.783843   4.351602   1.093493   2.788069   1.777983
    32  H    2.565614   3.784833   1.096082   3.497226   1.777326
    33  H    3.785952   2.567292   3.497424   1.096077   3.764009
    34  H    4.351465   3.784553   2.787281   1.093449   3.117430
    35  H    3.767541   3.114608   2.758761   1.096491   2.528833
    36  H    2.353234   2.364516   3.931107   3.942043   4.715667
    37  C    8.487617   8.740420   8.959294   9.300909  10.036954
    38  C    8.634698   8.568535   9.107378   9.019770  10.173916
    39  C    6.412590   6.450182   7.294232   7.343094   8.316269
    40  C    7.027343   7.404708   7.685947   8.176840   8.739723
    41  H    8.876952   9.219609   9.035678   9.513693  10.126977
    42  H    9.212942   9.506970   9.865453  10.256976  10.930197
    43  H    9.315407   9.196513   9.519579   9.355273  10.594092
    44  H    9.198957   9.046828   9.913978   9.714385  10.959037
    45  H    7.409718   6.989689   7.976541   7.418644   8.980488
    46  H    6.842658   6.806800   8.057378   8.015794   9.034670
    47  H    7.096872   7.625913   8.019278   8.685287   9.032379
    48  H    6.604936   7.123668   6.944926   7.642142   8.014848
    49  N    7.317878   7.144581   7.824777   7.595036   8.869638
                   31         32         33         34         35
    31  H    0.000000
    32  H    1.775083   0.000000
    33  H    3.801642   4.353668   0.000000
    34  H    2.595433   3.801136   1.775076   0.000000
    35  H    3.119359   3.764147   1.777157   1.777841   0.000000
    36  H    4.537716   3.798896   3.818646   4.547943   4.724467
    37  C    8.886727   8.587885   9.190409   9.240199  10.342441
    38  C    9.017667   8.910670   8.755724   8.927945  10.095684
    39  C    7.425060   7.017088   7.103882   7.475119   8.358935
    40  C    7.733362   7.244245   8.115150   8.233861   9.173526
    41  H    8.844372   8.660256   9.498814   9.344694  10.554956
    42  H    9.847296   9.432574  10.124459  10.249838  11.284106
    43  H    9.313321   9.393813   9.105143   9.142103  10.447025
    44  H    9.900024   9.713364   9.360000   9.696158  10.779054
    45  H    7.961326   7.975728   6.989033   7.388999   8.489710
    46  H    8.290948   7.757892   7.683381   8.250431   8.997437
    47  H    8.174410   7.459366   8.646239   8.844953   9.627331
    48  H    6.907568   6.479717   7.710928   7.625357   8.624907
    49  N    7.786318   7.704058   7.297835   7.550593   8.667974
                   36         37         38         39         40
    36  H    0.000000
    37  C    6.429658   0.000000
    38  C    6.400008   1.556986   0.000000
    39  C    4.185826   2.471679   2.381840   0.000000
    40  C    5.052759   1.558139   2.474101   1.559696   0.000000
    41  H    6.937079   1.094570   2.201434   3.290229   2.198267
    42  H    7.171188   1.094919   2.197109   3.154870   2.214442
    43  H    7.110190   2.224313   1.094673   3.327573   3.339332
    44  H    6.909046   2.191945   1.106526   2.832537   3.097896
    45  H    5.092901   3.320122   2.124067   2.119260   3.290999
    46  H    4.610873   2.867389   2.701971   1.110104   2.162275
    47  H    5.267509   2.226089   3.319576   2.208080   1.094399
    48  H    4.815234   2.199686   3.120684   2.174409   1.094086
    49  N    5.049438   2.377854   1.473613   1.483758   2.340329
                   41         42         43         44         45
    41  H    0.000000
    42  H    1.763576   0.000000
    43  H    2.391528   2.856869   0.000000
    44  H    3.006503   2.333867   1.776760   0.000000
    45  H    3.960082   4.080608   2.566340   2.482806   0.000000
    46  H    3.874082   3.202759   3.758072   2.705100   2.508902
    47  H    2.886295   2.403524   4.254238   3.697594   4.164943
    48  H    2.346604   3.007886   3.760432   3.953922   3.736725
    49  N    3.009183   3.234749   2.124058   2.157678   1.016761
                   46         47         48         49
    46  H    0.000000
    47  H    2.389040   0.000000
    48  H    3.040310   1.769695   0.000000
    49  N    2.140292   3.290212   2.787971   0.000000
 Stoichiometry    C18H29NO
 Framework group  C1[X(C18H29NO)]
 Deg. of freedom   141
 Full point group                 C1      NOp   1
 Largest Abelian subgroup         C1      NOp   1
 Largest concise Abelian subgroup C1      NOp   1
                         Standard orientation:                         
 ---------------------------------------------------------------------
 Center     Atomic      Atomic             Coordinates (Angstroms)
 Number     Number       Type             X           Y           Z
 ---------------------------------------------------------------------
      1          6           0       -1.659813   -1.952173   -0.223715
      2          1           0       -1.466908   -3.023742   -0.246740
      3          6           0       -0.628066    0.333688   -0.110486
      4          6           0        0.485384    1.089558   -0.019749
      5          6           0        1.882197   -0.905230   -0.029270
      6          6           0        0.782806   -1.680476   -0.125083
      7          6           0       -0.574657   -1.129796   -0.157402
      8          1           0       -1.601133    0.797630   -0.184883
      9          8           0        1.763937    0.495763    0.036879
     10          6           0       -0.804667    3.257516   -0.025623
     11          6           0        0.593774    2.605817    0.031986
     12          1           0       -1.331789    2.996878   -0.949844
     13          1           0       -1.425943    2.948613    0.822124
     14          1           0       -0.700106    4.347609    0.010093
     15          6           0        1.296325    3.023787    1.352863
     16          6           0        1.436399    3.100685   -1.175588
     17          1           0        2.290954    2.575031    1.425137
     18          1           0        1.402318    4.114518    1.390981
     19          1           0        0.709958    2.704760    2.222243
     20          1           0        1.541689    4.191427   -1.135878
     21          1           0        2.434841    2.654596   -1.164113
     22          1           0        0.951394    2.836454   -2.122384
     23          6           0        3.472560   -2.866986   -0.049972
     24          6           0        3.341666   -1.330704    0.028627
     25          1           0        4.531235   -3.145472   -0.006226
     26          1           0        2.961007   -3.357121    0.786035
     27          1           0        3.059834   -3.257819   -0.986827
     28          6           0        3.964424   -0.834585    1.362516
     29          6           0        4.107232   -0.693060   -1.162965
     30          1           0        5.025219   -1.108814    1.404462
     31          1           0        3.882167    0.252272    1.450275
     32          1           0        3.456992   -1.289102    2.221191
     33          1           0        3.701985   -1.044794   -2.118707
     34          1           0        4.029536    0.397314   -1.136908
     35          1           0        5.167570   -0.968402   -1.116454
     36          1           0        0.897504   -2.756043   -0.172282
     37          6           0       -4.965597   -0.323240    0.850468
     38          6           0       -4.875841   -0.040754   -0.678045
     39          6           0       -3.119445   -1.579644   -0.208950
     40          6           0       -3.711262   -1.186997    1.179658
     41          1           0       -4.954964    0.609104    1.423796
     42          1           0       -5.897351   -0.844481    1.093347
     43          1           0       -5.090201    1.002428   -0.931286
     44          1           0       -5.606988   -0.673492   -1.216066
     45          1           0       -3.260484   -0.448599   -1.995597
     46          1           0       -3.687400   -2.464673   -0.564592
     47          1           0       -3.947844   -2.072542    1.777611
     48          1           0       -2.967003   -0.600415    1.726490
     49          7           0       -3.479728   -0.380523   -1.005092
 ---------------------------------------------------------------------
 Rotational constants (GHZ):      0.4648893      0.2086877      0.1600651
 Standard basis: 6-31G (6D, 7F)
 There are   238 symmetry adapted cartesian basis functions of A   symmetry.
 There are   238 symmetry adapted basis functions of A   symmetry.
   238 basis functions,   556 primitive gaussians,   238 cartesian basis functions
    76 alpha electrons       76 beta electrons
       nuclear repulsion energy      1635.7781105638 Hartrees.
 NAtoms=   49 NActive=   49 NUniq=   49 SFac= 1.00D+00 NAtFMM=   60 NAOKFM=F Big=F
 Integral buffers will be    131072 words long.
 Regular integral format.
 Two-electron integral symmetry is turned on.
 One-electron integrals computed using PRISM.
 NBasis=   238 RedAO= T EigKep=  9.87D-04  NBF=   238
 NBsUse=   238 1.00D-06 EigRej= -1.00D+00 NBFU=   238
 ExpMin= 1.61D-01 ExpMax= 5.48D+03 ExpMxC= 8.25D+02 IAcc=1 IRadAn=         1 AccDes= 0.00D+00
 Harris functional with IExCor=  402 and IRadAn=       1 diagonalized for initial guess.
 HarFok:  IExCor=  402 AccDes= 0.00D+00 IRadAn=         1 IDoV= 1 UseB2=F ITyADJ=14
 ICtDFT=  3500011 ScaDFX=  1.000000  1.000000  1.000000  1.000000
 FoFCou: FMM=F IPFlag=           0 FMFlag=      100000 FMFlg1=           0
         NFxFlg=           0 DoJE=T BraDBF=F KetDBF=T FulRan=T
         wScrn=  0.000000 ICntrl=     500 IOpCl=  0 I1Cent=   200000004 NGrid=           0
         NMat0=    1 NMatS0=      1 NMatT0=    0 NMatD0=    1 NMtDS0=    0 NMtDT0=    0
 Petite list used in FoFCou.
 Requested convergence on RMS density matrix=1.00D-08 within 128 cycles.
 Requested convergence on MAX density matrix=1.00D-06.
 Requested convergence on             energy=1.00D-06.
 No special actions if energy rises.
 Integral accuracy reduced to 1.0D-05 until final iterations.
 Initial convergence to 1.0D-05 achieved.  Increase integral accuracy.
 SCF Done:  E(RB3LYP) =  -833.110369168     A.U. after   16 cycles
            NFock= 16  Conv=0.89D-08     -V/T= 2.0058
 DoSCS=F DFT=T ScalE2(SS,OS)=  1.000000  1.000000
 ExpMin= 1.61D-01 ExpMax= 5.48D+03 ExpMxC= 8.25D+02 IAcc=3 IRadAn=         5 AccDes= 0.00D+00
 HarFok:  IExCor=  205 AccDes= 0.00D+00 IRadAn=         5 IDoV=-2 UseB2=F ITyADJ=14
 ICtDFT= 12500011 ScaDFX=  1.000000  1.000000  1.000000  1.000000
 Range of M.O.s used for correlation:    21   238
 NBasis=   238 NAE=    76 NBE=    76 NFC=    20 NFV=     0
 NROrb=    218 NOA=    56 NOB=    56 NVA=   162 NVB=   162
 Would need an additional          1191900000 words for in-memory AO integral storage.
 Orbital symmetries:
       Occupied  (A) (A) (A) (A) (A) (A) (A) (A) (A) (A) (A) (A)
                 (A) (A) (A) (A) (A) (A) (A) (A) (A) (A) (A) (A)
                 (A) (A) (A) (A) (A) (A) (A) (A) (A) (A) (A) (A)
                 (A) (A) (A) (A) (A) (A) (A) (A) (A) (A) (A) (A)
                 (A) (A) (A) (A) (A) (A) (A) (A) (A) (A) (A) (A)
                 (A) (A) (A) (A) (A) (A) (A) (A) (A) (A) (A) (A)
                 (A) (A) (A) (A)
       Virtual   (A) (A) (A) (A) (A) (A) (A) (A) (A) (A) (A) (A)
                 (A) (A) (A) (A) (A) (A) (A) (A) (A) (A) (A) (A)
                 (A) (A) (A) (A) (A) (A) (A) (A) (A) (A) (A) (A)
                 (A) (A) (A) (A) (A) (A) (A) (A) (A) (A) (A) (A)
                 (A) (A) (A) (A) (A) (A) (A) (A) (A) (A) (A) (A)
                 (A) (A) (A) (A) (A) (A) (A) (A) (A) (A) (A) (A)
                 (A) (A) (A) (A) (A) (A) (A) (A) (A) (A) (A) (A)
                 (A) (A) (A) (A) (A) (A) (A) (A) (A) (A) (A) (A)
                 (A) (A) (A) (A) (A) (A) (A) (A) (A) (A) (A) (A)
                 (A) (A) (A) (A) (A) (A) (A) (A) (A) (A) (A) (A)
                 (A) (A) (A) (A) (A) (A) (A) (A) (A) (A) (A) (A)
                 (A) (A) (A) (A) (A) (A) (A) (A) (A) (A) (A) (A)
                 (A) (A) (A) (A) (A) (A) (A) (A) (A) (A) (A) (A)
                 (A) (A) (A) (A) (A) (A)
    24 initial guesses have been made.
 Convergence on wavefunction:    0.001000000000000
 Iteration     1 Dimension    24 NMult     0 NNew     24
 CISAX will form    24 AO SS matrices at one time.
 New state      1 was old state      2
 New state      2 was old state      4
 New state      3 was old state      6
 New state      4 was old state      3
 New state      6 was old state      8
 Vector   6 SDiff=9.67D+00 TDiff=1.03D+01 assumed to be singlet.
 Vector  12 SDiff=9.72D+00 TDiff=1.01D+01 assumed to be singlet.
 Iteration     2 Dimension    36 NMult    24 NNew     12
 New state      3 was old state      4
 New state      4 was old state      3
 New state      6 was old state     10
 Iteration     3 Dimension    48 NMult    36 NNew     12
 Iteration     4 Dimension    60 NMult    48 NNew     12
 Iteration     5 Dimension    72 NMult    60 NNew     12
 Iteration     6 Dimension    78 NMult    72 NNew      6
 ***********************************************************************
 Excited states from <AA,BB:AA,BB> singles matrix:
 ***********************************************************************
 
 Ground to excited state transition densities written to RWF  633
 Ground to excited state transition electric dipole moments (Au):
       state          X           Y           Z        Dip. S.      Osc.
         1         0.0000      0.0000      0.0000      0.0000      0.0000
         2         0.0000      0.0000      0.0000      0.0000      0.0000
         3         0.0533      0.0889     -0.0042      0.0108      0.0011
         4         0.0000      0.0000      0.0000      0.0000      0.0000
         5         0.7985      0.3610     -0.0121      0.7682      0.0859
         6         1.8987      0.8708      0.0503      4.3659      0.5115
 Ground to excited state transition velocity dipole moments (Au):
       state          X           Y           Z        Dip. S.      Osc.
         1         0.0000      0.0000      0.0000      0.0000      0.0000
         2         0.0000      0.0000      0.0000      0.0000      0.0000
         3        -0.0061     -0.0200     -0.0002      0.0004      0.0018
         4         0.0000      0.0000      0.0000      0.0000      0.0000
         5        -0.1147     -0.0606      0.0000      0.0168      0.0669
         6        -0.2861     -0.1185     -0.0040      0.0959      0.3639
 Ground to excited state transition magnetic dipole moments (Au):
       state          X           Y           Z
         1         0.0000      0.0000      0.0000
         2         0.0000      0.0000      0.0000
         3        -0.0627     -0.0577      1.2221
         4         0.0000      0.0000      0.0000
         5        -0.0562      0.0340     -0.4193
         6        -0.0436      0.1611     -0.8638
 Ground to excited state transition velocity quadrupole moments (Au):
       state          XX          YY          ZZ          XY          XZ          YZ
         1         0.0000      0.0000      0.0000      0.0000      0.0000      0.0000
         2         0.0000      0.0000      0.0000      0.0000      0.0000      0.0000
         3         0.2455     -0.1859     -0.0090     -0.0442      0.0078     -0.0050
         4         0.0000      0.0000      0.0000      0.0000      0.0000      0.0000
         5         0.2295      0.0497      0.0283      0.3832     -0.0528      0.0546
         6         0.7097     -0.0862      0.0288      0.5832     -0.0065      0.0103
 <0|del|b> * <b|rxdel|0> + <0|del|b> * <b|delr+rdel|0>
 Rotatory Strengths (R) in cgs (10**-40 erg-esu-cm/Gauss)
       state          XX          YY          ZZ    R(velocity)    E-M Angle
         1         0.0000      0.0000      0.0000      0.0000       90.00
         2         0.0000      0.0000      0.0000      0.0000       90.00
         3         2.3433      0.2907      3.0351      1.8897       87.17
         4         0.0000      0.0000      0.0000      0.0000       90.00
         5       -11.0936      0.3923     29.2095      6.1694       85.43
         6       -37.6732     30.9815     -5.8407     -4.1775       90.65
 1/2[<0|r|b>*<b|rxdel|0> + (<0|rxdel|b>*<b|r|0>)*]
 Rotatory Strengths (R) in cgs (10**-40 erg-esu-cm/Gauss)
       state          XX          YY          ZZ     R(length)
         1         0.0000      0.0000      0.0000      0.0000
         2         0.0000      0.0000      0.0000      0.0000
         3         2.3670      3.6314      3.6147      3.2044
         4         0.0000      0.0000      0.0000      0.0000
         5        31.7438     -8.6747     -3.5871      6.4940
         6        58.5727    -99.2297     30.7016     -3.3185
  1/2[<0|del|b>*<b|r|0> + (<0|r|b>*<b|del|0>)*] (Au)
       state          X           Y           Z        Dip. S.   Osc.(frdel)
         1         0.0000      0.0000      0.0000      0.0000      0.0000
         2         0.0000      0.0000      0.0000      0.0000      0.0000
         3        -0.0003     -0.0018      0.0000      0.0021      0.0014
         4         0.0000      0.0000      0.0000      0.0000      0.0000
         5        -0.0916     -0.0219      0.0000      0.1135      0.0757
         6        -0.5433     -0.1032     -0.0002      0.6467      0.4311

 Excitation energies and oscillator strengths:
 
 Excited State   1:      Triplet-A      2.3979 eV  517.05 nm  f=0.0000  <S**2>=2.000
      74 -> 78        -0.12834
      76 -> 77         0.70064
      76 <- 77         0.13658
 This state for optimization and/or second-order correction.
 Total Energy, E(TD-HF/TD-KS) =  -833.022246680    
 Copying the excited state density for this state as the 1-particle RhoCI density.
 
 Excited State   2:      Triplet-A      3.3460 eV  370.54 nm  f=0.0000  <S**2>=2.000
      74 -> 77        -0.19955
      76 -> 78         0.66352
 
 Excited State   3:      Singlet-A      4.2870 eV  289.21 nm  f=0.0011  <S**2>=0.000
      76 -> 78         0.70143
 
 Excited State   4:      Triplet-A      4.5125 eV  274.76 nm  f=0.0000  <S**2>=2.000
      75 -> 77         0.69320
 
 Excited State   5:      Singlet-A      4.5656 eV  271.56 nm  f=0.0859  <S**2>=0.000
      75 -> 77         0.62620
      76 -> 77         0.31504
 
 Excited State   6:      Singlet-A      4.7818 eV  259.29 nm  f=0.5115  <S**2>=0.000
      74 -> 78         0.12246
      75 -> 77        -0.32147
      76 -> 77         0.61367
 SavETr:  write IOETrn=   770 NScale= 10 NData=  16 NLR=1 NState=    6 LETran=     118.

 **********************************************************************

            Population analysis using the SCF density.

 **********************************************************************

 Orbital symmetries:
       Occupied  (A) (A) (A) (A) (A) (A) (A) (A) (A) (A) (A) (A)
                 (A) (A) (A) (A) (A) (A) (A) (A) (A) (A) (A) (A)
                 (A) (A) (A) (A) (A) (A) (A) (A) (A) (A) (A) (A)
                 (A) (A) (A) (A) (A) (A) (A) (A) (A) (A) (A) (A)
                 (A) (A) (A) (A) (A) (A) (A) (A) (A) (A) (A) (A)
                 (A) (A) (A) (A) (A) (A) (A) (A) (A) (A) (A) (A)
                 (A) (A) (A) (A)
       Virtual   (A) (A) (A) (A) (A) (A) (A) (A) (A) (A) (A) (A)
                 (A) (A) (A) (A) (A) (A) (A) (A) (A) (A) (A) (A)
                 (A) (A) (A) (A) (A) (A) (A) (A) (A) (A) (A) (A)
                 (A) (A) (A) (A) (A) (A) (A) (A) (A) (A) (A) (A)
                 (A) (A) (A) (A) (A) (A) (A) (A) (A) (A) (A) (A)
                 (A) (A) (A) (A) (A) (A) (A) (A) (A) (A) (A) (A)
                 (A) (A) (A) (A) (A) (A) (A) (A) (A) (A) (A) (A)
                 (A) (A) (A) (A) (A) (A) (A) (A) (A) (A) (A) (A)
                 (A) (A) (A) (A) (A) (A) (A) (A) (A) (A) (A) (A)
                 (A) (A) (A) (A) (A) (A) (A) (A) (A) (A) (A) (A)
                 (A) (A) (A) (A) (A) (A) (A) (A) (A) (A) (A) (A)
                 (A) (A) (A) (A) (A) (A) (A) (A) (A) (A) (A) (A)
                 (A) (A) (A) (A) (A) (A) (A) (A) (A) (A) (A) (A)
                 (A) (A) (A) (A) (A) (A)
 The electronic state is 1-A.
 Alpha  occ. eigenvalues --  -19.18337 -14.30332 -10.24212 -10.23933 -10.20574
 Alpha  occ. eigenvalues --  -10.20412 -10.20264 -10.19821 -10.18632 -10.17521
 Alpha  occ. eigenvalues --  -10.17260 -10.17010 -10.16762 -10.16562 -10.16552
 Alpha  occ. eigenvalues --  -10.16546 -10.16531 -10.16375 -10.16354 -10.15638
 Alpha  occ. eigenvalues --   -1.07212  -0.90751  -0.83714  -0.81994  -0.80667
 Alpha  occ. eigenvalues --   -0.75084  -0.74502  -0.73919  -0.69047  -0.68880
 Alpha  occ. eigenvalues --   -0.68317  -0.68083  -0.67550  -0.63471  -0.61404
 Alpha  occ. eigenvalues --   -0.58404  -0.57036  -0.54257  -0.53259  -0.50291
 Alpha  occ. eigenvalues --   -0.50143  -0.48689  -0.46321  -0.45961  -0.45163
 Alpha  occ. eigenvalues --   -0.44644  -0.43601  -0.43528  -0.42734  -0.41999
 Alpha  occ. eigenvalues --   -0.41928  -0.39632  -0.38739  -0.38576  -0.38515
 Alpha  occ. eigenvalues --   -0.38248  -0.37260  -0.37024  -0.36575  -0.36419
 Alpha  occ. eigenvalues --   -0.36140  -0.36023  -0.35673  -0.34372  -0.34032
 Alpha  occ. eigenvalues --   -0.33586  -0.33263  -0.32411  -0.32236  -0.31594
 Alpha  occ. eigenvalues --   -0.31259  -0.30906  -0.30225  -0.25277  -0.20259
 Alpha  occ. eigenvalues --   -0.17232
 Alpha virt. eigenvalues --   -0.00266   0.01740   0.07417   0.08561   0.09815
 Alpha virt. eigenvalues --    0.11147   0.11781   0.12255   0.12571   0.13461
 Alpha virt. eigenvalues --    0.13602   0.13725   0.14150   0.14314   0.14938
 Alpha virt. eigenvalues --    0.15325   0.15699   0.16006   0.16140   0.16873
 Alpha virt. eigenvalues --    0.18189   0.18628   0.19157   0.19298   0.19686
 Alpha virt. eigenvalues --    0.20214   0.20427   0.20741   0.20967   0.21242
 Alpha virt. eigenvalues --    0.21384   0.21883   0.22607   0.23156   0.23685
 Alpha virt. eigenvalues --    0.24348   0.24631   0.24757   0.25161   0.25330
 Alpha virt. eigenvalues --    0.25525   0.26816   0.26829   0.28565   0.29552
 Alpha virt. eigenvalues --    0.30058   0.31999   0.32424   0.38227   0.42003
 Alpha virt. eigenvalues --    0.45023   0.48063   0.48668   0.51667   0.52428
 Alpha virt. eigenvalues --    0.53139   0.53218   0.53932   0.53980   0.56042
 Alpha virt. eigenvalues --    0.57004   0.57550   0.57856   0.58665   0.58834
 Alpha virt. eigenvalues --    0.59261   0.60154   0.60630   0.61158   0.62255
 Alpha virt. eigenvalues --    0.62442   0.62772   0.64550   0.64733   0.65563
 Alpha virt. eigenvalues --    0.66204   0.67502   0.67886   0.68946   0.69601
 Alpha virt. eigenvalues --    0.70017   0.70257   0.71232   0.73307   0.73607
 Alpha virt. eigenvalues --    0.74041   0.76170   0.77205   0.78797   0.79756
 Alpha virt. eigenvalues --    0.82337   0.82417   0.82813   0.84336   0.84942
 Alpha virt. eigenvalues --    0.85379   0.85704   0.86034   0.86274   0.87602
 Alpha virt. eigenvalues --    0.88254   0.90075   0.90985   0.91562   0.91983
 Alpha virt. eigenvalues --    0.92130   0.93007   0.93653   0.93918   0.94479
 Alpha virt. eigenvalues --    0.95101   0.95557   0.96163   0.96413   0.96898
 Alpha virt. eigenvalues --    0.97352   0.97699   0.98026   0.98880   0.99135
 Alpha virt. eigenvalues --    0.99341   0.99584   0.99881   1.00117   1.01628
 Alpha virt. eigenvalues --    1.02051   1.03238   1.03752   1.04210   1.06883
 Alpha virt. eigenvalues --    1.08275   1.09145   1.11748   1.12375   1.13883
 Alpha virt. eigenvalues --    1.15528   1.17397   1.18016   1.18847   1.23571
 Alpha virt. eigenvalues --    1.25230   1.30046   1.34008   1.34637   1.37012
 Alpha virt. eigenvalues --    1.39068   1.43602   1.47103   1.48973   1.49757
 Alpha virt. eigenvalues --    1.50275   1.52652   1.58613   1.59840   1.65823
 Alpha virt. eigenvalues --    1.69650   1.76799   1.82149   1.88030   1.98459
 Alpha virt. eigenvalues --    1.99422   2.14724
          Condensed to atoms (all electrons):
               1          2          3          4          5          6
     1  C    5.281713   0.354048  -0.062037   0.008758   0.008626  -0.042348
     2  H    0.354048   0.632885   0.005530  -0.000261   0.000637  -0.008360
     3  C   -0.062037   0.005530   5.288609   0.481002  -0.033154  -0.050602
     4  C    0.008758  -0.000261   0.481002   4.938111   0.002492  -0.034132
     5  C    0.008626   0.000637  -0.033154   0.002492   4.919715   0.477440
     6  C   -0.042348  -0.008360  -0.050602  -0.034132   0.477440   5.286804
     7  C    0.539746  -0.040586   0.376229  -0.020996  -0.018409   0.354569
     8  H   -0.015372   0.000065   0.333192  -0.032176   0.000083   0.005480
     9  O    0.000605   0.000000  -0.091400   0.205243   0.211665  -0.092918
    10  C    0.000022   0.000000  -0.002450  -0.059384  -0.000099  -0.000032
    11  C   -0.000201   0.000002  -0.049924   0.312597   0.002969   0.000489
    12  H   -0.000011   0.000000   0.000586  -0.004723  -0.000003   0.000001
    13  H   -0.000011   0.000000   0.001384  -0.004618  -0.000001   0.000000
    14  H    0.000000   0.000000   0.000507   0.006038   0.000001   0.000001
    15  C    0.000005   0.000000  -0.000700  -0.064137  -0.000049  -0.000064
    16  C    0.000004   0.000000  -0.000803  -0.064399  -0.000041  -0.000060
    17  H    0.000000   0.000000   0.000003  -0.007684  -0.000059   0.000003
    18  H    0.000000   0.000000  -0.000069   0.006210   0.000001   0.000001
    19  H   -0.000001   0.000000   0.001217  -0.001455  -0.000004   0.000003
    20  H    0.000000   0.000000  -0.000068   0.006227   0.000001   0.000001
    21  H    0.000000   0.000000  -0.000002  -0.007662  -0.000065   0.000001
    22  H   -0.000001   0.000000   0.001245  -0.001429  -0.000001   0.000002
    23  C   -0.000001  -0.000002  -0.000021  -0.000102  -0.058812  -0.005363
    24  C   -0.000173  -0.000003   0.000119   0.002963   0.314878  -0.049613
    25  H    0.000000   0.000000   0.000000   0.000001   0.005955   0.000390
    26  H   -0.000011  -0.000002   0.000001  -0.000002  -0.004628   0.001336
    27  H   -0.000014  -0.000002   0.000002  -0.000002  -0.004595   0.001367
    28  C    0.000005   0.000000  -0.000044  -0.000065  -0.064352  -0.000850
    29  C    0.000005   0.000000  -0.000055  -0.000047  -0.063909  -0.000756
    30  H    0.000000   0.000000   0.000001   0.000001   0.006246  -0.000070
    31  H    0.000000   0.000000  -0.000001  -0.000055  -0.007805   0.000014
    32  H   -0.000002   0.000000   0.000004  -0.000005  -0.001524   0.001273
    33  H   -0.000002   0.000000   0.000006  -0.000006  -0.001525   0.001233
    34  H    0.000000   0.000000  -0.000001  -0.000059  -0.007782   0.000009
    35  H    0.000000   0.000000   0.000001   0.000001   0.006226  -0.000069
    36  H   -0.007545   0.006721   0.005542   0.000196  -0.031987   0.344096
    37  C    0.006259  -0.000124  -0.000097  -0.000003   0.000000   0.000000
    38  C    0.006779  -0.000184  -0.000024   0.000002   0.000000   0.000001
    39  C    0.308748  -0.048000  -0.009327   0.000002  -0.000324   0.005056
    40  C   -0.039686   0.002385   0.000741  -0.000030   0.000010  -0.000001
    41  H   -0.000191   0.000003  -0.000019   0.000002   0.000000   0.000000
    42  H   -0.000187   0.000002  -0.000001   0.000000   0.000000   0.000000
    43  H   -0.000167   0.000002   0.000119  -0.000003   0.000000   0.000000
    44  H   -0.000540   0.000012  -0.000033   0.000000   0.000000   0.000000
    45  H    0.003576   0.000040   0.000395  -0.000062   0.000000  -0.000047
    46  H   -0.053012  -0.005734  -0.000062   0.000000  -0.000001  -0.000183
    47  H    0.001057   0.000260  -0.000038   0.000001   0.000000   0.000005
    48  H   -0.008061  -0.000052   0.001513  -0.000026  -0.000007  -0.000078
    49  N   -0.060413   0.003341  -0.020140   0.000152  -0.000011   0.000205
               7          8          9         10         11         12
     1  C    0.539746  -0.015372   0.000605   0.000022  -0.000201  -0.000011
     2  H   -0.040586   0.000065   0.000000   0.000000   0.000002   0.000000
     3  C    0.376229   0.333192  -0.091400  -0.002450  -0.049924   0.000586
     4  C   -0.020996  -0.032176   0.205243  -0.059384   0.312597  -0.004723
     5  C   -0.018409   0.000083   0.211665  -0.000099   0.002969  -0.000003
     6  C    0.354569   0.005480  -0.092918  -0.000032   0.000489   0.000001
     7  C    4.754345  -0.022336  -0.008097   0.000766   0.003497  -0.000012
     8  H   -0.022336   0.515737   0.002767   0.001764  -0.006628   0.002118
     9  O   -0.008097   0.002767   8.507452   0.002996  -0.077997  -0.000024
    10  C    0.000766   0.001764   0.002996   5.140055   0.344351   0.365914
    11  C    0.003497  -0.006628  -0.077997   0.344351   5.134258  -0.029799
    12  H   -0.000012   0.002118  -0.000024   0.365914  -0.029799   0.584368
    13  H    0.000000   0.001902  -0.000017   0.365914  -0.030460  -0.033356
    14  H   -0.000010   0.000041  -0.000057   0.363162  -0.033305  -0.031528
    15  C   -0.000098   0.000149   0.000677  -0.059733   0.332590   0.005783
    16  C   -0.000073   0.000217   0.000913  -0.059754   0.332904  -0.004981
    17  H    0.000029  -0.000020   0.005768   0.005178  -0.031538  -0.000191
    18  H    0.000000   0.000001   0.000125  -0.004126  -0.035233  -0.000029
    19  H   -0.000010  -0.000039  -0.000449  -0.004437  -0.033355  -0.000045
    20  H    0.000000  -0.000001   0.000126  -0.004138  -0.035211  -0.000153
    21  H    0.000031  -0.000022   0.005595   0.005174  -0.031515  -0.000012
    22  H   -0.000015  -0.000053  -0.000456  -0.004359  -0.033386   0.004138
    23  C    0.000689   0.000000   0.002960   0.000000   0.000001   0.000000
    24  C    0.003766   0.000012  -0.077832   0.000001  -0.000154   0.000000
    25  H   -0.000010   0.000000  -0.000056   0.000000   0.000000   0.000000
    26  H   -0.000005   0.000000  -0.000021   0.000000   0.000000   0.000000
    27  H    0.000004   0.000000  -0.000021   0.000000   0.000000   0.000000
    28  C   -0.000093   0.000000   0.000666   0.000000   0.000017   0.000000
    29  C   -0.000080   0.000000   0.000776   0.000000   0.000019   0.000000
    30  H    0.000000   0.000000   0.000125   0.000000   0.000000   0.000000
    31  H    0.000031   0.000000   0.005830   0.000001  -0.000067   0.000000
    32  H   -0.000016   0.000000  -0.000449   0.000000  -0.000002   0.000000
    33  H   -0.000016   0.000000  -0.000452   0.000000  -0.000003   0.000000
    34  H    0.000031   0.000000   0.005727   0.000001  -0.000067   0.000000
    35  H    0.000000   0.000000   0.000133   0.000000  -0.000001   0.000000
    36  H   -0.037040  -0.000101   0.003343   0.000000   0.000017   0.000000
    37  C    0.000326  -0.000130   0.000000   0.000000   0.000000   0.000000
    38  C    0.000281   0.000284   0.000000  -0.000002   0.000000   0.000000
    39  C   -0.016307   0.001428  -0.000003   0.000006   0.000003  -0.000001
    40  C   -0.011674  -0.001753   0.000000  -0.000007   0.000002  -0.000002
    41  H   -0.000021   0.000145   0.000000  -0.000001   0.000000  -0.000001
    42  H    0.000003   0.000008   0.000000   0.000000   0.000000   0.000000
    43  H   -0.000006  -0.000449   0.000000   0.000012   0.000000   0.000005
    44  H    0.000025   0.000144   0.000000   0.000000   0.000000   0.000001
    45  H    0.000148  -0.001461   0.000000   0.000008  -0.000002  -0.000007
    46  H    0.008990   0.000554   0.000000   0.000000   0.000000   0.000000
    47  H    0.000150   0.000062   0.000000   0.000000   0.000000   0.000000
    48  H    0.004581   0.001673   0.000000  -0.000010   0.000000  -0.000003
    49  N   -0.000139   0.031453  -0.000002  -0.000235   0.000036   0.000332
              13         14         15         16         17         18
     1  C   -0.000011   0.000000   0.000005   0.000004   0.000000   0.000000
     2  H    0.000000   0.000000   0.000000   0.000000   0.000000   0.000000
     3  C    0.001384   0.000507  -0.000700  -0.000803   0.000003  -0.000069
     4  C   -0.004618   0.006038  -0.064137  -0.064399  -0.007684   0.006210
     5  C   -0.000001   0.000001  -0.000049  -0.000041  -0.000059   0.000001
     6  C    0.000000   0.000001  -0.000064  -0.000060   0.000003   0.000001
     7  C    0.000000  -0.000010  -0.000098  -0.000073   0.000029   0.000000
     8  H    0.001902   0.000041   0.000149   0.000217  -0.000020   0.000001
     9  O   -0.000017  -0.000057   0.000677   0.000913   0.005768   0.000125
    10  C    0.365914   0.363162  -0.059733  -0.059754   0.005178  -0.004126
    11  C   -0.030460  -0.033305   0.332590   0.332904  -0.031538  -0.035233
    12  H   -0.033356  -0.031528   0.005783  -0.004981  -0.000191  -0.000029
    13  H    0.588026  -0.031667  -0.005124   0.005849  -0.000013  -0.000151
    14  H   -0.031667   0.601990  -0.004675  -0.004673  -0.000005   0.003520
    15  C   -0.005124  -0.004675   5.157186  -0.065070   0.370137   0.364653
    16  C    0.005849  -0.004673  -0.065070   5.157337  -0.003244  -0.004909
    17  H   -0.000013  -0.000005   0.370137  -0.003244   0.563280  -0.030481
    18  H   -0.000151   0.003520   0.364653  -0.004909  -0.030481   0.602545
    19  H    0.004207  -0.000134   0.364683   0.005645  -0.029740  -0.031949
    20  H   -0.000029   0.003513  -0.004895   0.364680  -0.000157   0.003593
    21  H   -0.000193  -0.000001  -0.003265   0.370053   0.003086  -0.000160
    22  H   -0.000049  -0.000140   0.005648   0.364640  -0.000012  -0.000017
    23  C    0.000000   0.000000   0.000000   0.000000   0.000001   0.000000
    24  C    0.000000   0.000000   0.000022   0.000020  -0.000066  -0.000001
    25  H    0.000000   0.000000   0.000000   0.000000   0.000000   0.000000
    26  H    0.000000   0.000000   0.000000   0.000000   0.000000   0.000000
    27  H    0.000000   0.000000   0.000000   0.000000   0.000000   0.000000
    28  C    0.000000   0.000000  -0.000158   0.000002  -0.000022   0.000002
    29  C    0.000000   0.000000   0.000001  -0.000188  -0.000019   0.000000
    30  H    0.000000   0.000000   0.000002   0.000000  -0.000007   0.000000
    31  H    0.000000   0.000000   0.000003  -0.000017   0.002330  -0.000007
    32  H    0.000000   0.000000   0.000003   0.000000  -0.000004   0.000000
    33  H    0.000000   0.000000   0.000000   0.000003   0.000000   0.000000
    34  H    0.000000   0.000000  -0.000019  -0.000010   0.000072   0.000000
    35  H    0.000000   0.000000   0.000000   0.000003   0.000000   0.000000
    36  H    0.000000   0.000000   0.000000   0.000000   0.000000   0.000000
    37  C   -0.000003   0.000000   0.000000   0.000000   0.000000   0.000000
    38  C    0.000005   0.000000   0.000000   0.000000   0.000000   0.000000
    39  C    0.000005   0.000000   0.000000   0.000000   0.000000   0.000000
    40  C    0.000006   0.000000   0.000000   0.000000   0.000000   0.000000
    41  H    0.000023   0.000000   0.000000   0.000000   0.000000   0.000000
    42  H    0.000000   0.000000   0.000000   0.000000   0.000000   0.000000
    43  H   -0.000003   0.000000   0.000000   0.000000   0.000000   0.000000
    44  H    0.000000   0.000000   0.000000   0.000000   0.000000   0.000000
    45  H    0.000000   0.000000   0.000000   0.000000   0.000000   0.000000
    46  H    0.000000   0.000000   0.000000   0.000000   0.000000   0.000000
    47  H    0.000000   0.000000   0.000000   0.000000   0.000000   0.000000
    48  H    0.000074   0.000000  -0.000001   0.000000   0.000000   0.000000
    49  N    0.000011  -0.000001   0.000000   0.000000   0.000000   0.000000
              19         20         21         22         23         24
     1  C   -0.000001   0.000000   0.000000  -0.000001  -0.000001  -0.000173
     2  H    0.000000   0.000000   0.000000   0.000000  -0.000002  -0.000003
     3  C    0.001217  -0.000068  -0.000002   0.001245  -0.000021   0.000119
     4  C   -0.001455   0.006227  -0.007662  -0.001429  -0.000102   0.002963
     5  C   -0.000004   0.000001  -0.000065  -0.000001  -0.058812   0.314878
     6  C    0.000003   0.000001   0.000001   0.000002  -0.005363  -0.049613
     7  C   -0.000010   0.000000   0.000031  -0.000015   0.000689   0.003766
     8  H   -0.000039  -0.000001  -0.000022  -0.000053   0.000000   0.000012
     9  O   -0.000449   0.000126   0.005595  -0.000456   0.002960  -0.077832
    10  C   -0.004437  -0.004138   0.005174  -0.004359   0.000000   0.000001
    11  C   -0.033355  -0.035211  -0.031515  -0.033386   0.000001  -0.000154
    12  H   -0.000045  -0.000153  -0.000012   0.004138   0.000000   0.000000
    13  H    0.004207  -0.000029  -0.000193  -0.000049   0.000000   0.000000
    14  H   -0.000134   0.003513  -0.000001  -0.000140   0.000000   0.000000
    15  C    0.364683  -0.004895  -0.003265   0.005648   0.000000   0.000022
    16  C    0.005645   0.364680   0.370053   0.364640   0.000000   0.000020
    17  H   -0.029740  -0.000157   0.003086  -0.000012   0.000001  -0.000066
    18  H   -0.031949   0.003593  -0.000160  -0.000017   0.000000  -0.000001
    19  H    0.593035  -0.000018  -0.000011  -0.000206   0.000000  -0.000002
    20  H   -0.000018   0.602261  -0.030435  -0.031951   0.000000  -0.000001
    21  H   -0.000011  -0.030435   0.563314  -0.029833   0.000001  -0.000072
    22  H   -0.000206  -0.031951  -0.029833   0.593420   0.000000  -0.000002
    23  C    0.000000   0.000000   0.000001   0.000000   5.145299   0.343173
    24  C   -0.000002  -0.000001  -0.000072  -0.000002   0.343173   5.135805
    25  H    0.000000   0.000000   0.000000   0.000000   0.365420  -0.032852
    26  H    0.000000   0.000000   0.000000   0.000000   0.364833  -0.030495
    27  H    0.000000   0.000000   0.000000   0.000000   0.364810  -0.030548
    28  C    0.000002   0.000000  -0.000017   0.000000  -0.059980   0.332946
    29  C    0.000000   0.000002  -0.000006   0.000003  -0.059963   0.332369
    30  H    0.000000   0.000000   0.000000   0.000000  -0.004142  -0.035241
    31  H   -0.000003   0.000000   0.000055   0.000000   0.005191  -0.031565
    32  H    0.000000   0.000000   0.000000   0.000000  -0.004548  -0.033265
    33  H    0.000000   0.000000  -0.000002   0.000001  -0.004534  -0.033246
    34  H    0.000000  -0.000008   0.002585  -0.000004   0.005189  -0.031461
    35  H    0.000000   0.000000  -0.000008   0.000000  -0.004138  -0.035224
    36  H    0.000000   0.000000   0.000000   0.000000   0.003129  -0.008619
    37  C    0.000000   0.000000   0.000000   0.000000   0.000000   0.000000
    38  C    0.000000   0.000000   0.000000   0.000000   0.000000   0.000000
    39  C    0.000000   0.000000   0.000000   0.000000   0.000000   0.000001
    40  C    0.000000   0.000000   0.000000   0.000000   0.000000   0.000000
    41  H    0.000000   0.000000   0.000000   0.000000   0.000000   0.000000
    42  H    0.000000   0.000000   0.000000   0.000000   0.000000   0.000000
    43  H    0.000000   0.000000   0.000000   0.000000   0.000000   0.000000
    44  H    0.000000   0.000000   0.000000   0.000000   0.000000   0.000000
    45  H    0.000000   0.000000   0.000000   0.000000   0.000000   0.000000
    46  H    0.000000   0.000000   0.000000   0.000000   0.000000   0.000000
    47  H    0.000000   0.000000   0.000000   0.000000   0.000000   0.000000
    48  H    0.000002   0.000000   0.000000   0.000000   0.000000   0.000000
    49  N    0.000000   0.000000   0.000000   0.000000   0.000000   0.000000
              25         26         27         28         29         30
     1  C    0.000000  -0.000011  -0.000014   0.000005   0.000005   0.000000
     2  H    0.000000  -0.000002  -0.000002   0.000000   0.000000   0.000000
     3  C    0.000000   0.000001   0.000002  -0.000044  -0.000055   0.000001
     4  C    0.000001  -0.000002  -0.000002  -0.000065  -0.000047   0.000001
     5  C    0.005955  -0.004628  -0.004595  -0.064352  -0.063909   0.006246
     6  C    0.000390   0.001336   0.001367  -0.000850  -0.000756  -0.000070
     7  C   -0.000010  -0.000005   0.000004  -0.000093  -0.000080   0.000000
     8  H    0.000000   0.000000   0.000000   0.000000   0.000000   0.000000
     9  O   -0.000056  -0.000021  -0.000021   0.000666   0.000776   0.000125
    10  C    0.000000   0.000000   0.000000   0.000000   0.000000   0.000000
    11  C    0.000000   0.000000   0.000000   0.000017   0.000019   0.000000
    12  H    0.000000   0.000000   0.000000   0.000000   0.000000   0.000000
    13  H    0.000000   0.000000   0.000000   0.000000   0.000000   0.000000
    14  H    0.000000   0.000000   0.000000   0.000000   0.000000   0.000000
    15  C    0.000000   0.000000   0.000000  -0.000158   0.000001   0.000002
    16  C    0.000000   0.000000   0.000000   0.000002  -0.000188   0.000000
    17  H    0.000000   0.000000   0.000000  -0.000022  -0.000019  -0.000007
    18  H    0.000000   0.000000   0.000000   0.000002   0.000000   0.000000
    19  H    0.000000   0.000000   0.000000   0.000002   0.000000   0.000000
    20  H    0.000000   0.000000   0.000000   0.000000   0.000002   0.000000
    21  H    0.000000   0.000000   0.000000  -0.000017  -0.000006   0.000000
    22  H    0.000000   0.000000   0.000000   0.000000   0.000003   0.000000
    23  C    0.365420   0.364833   0.364810  -0.059980  -0.059963  -0.004142
    24  C   -0.032852  -0.030495  -0.030548   0.332946   0.332369  -0.035241
    25  H    0.594293  -0.031253  -0.031237  -0.004583  -0.004620   0.003526
    26  H   -0.031253   0.591090  -0.034422  -0.005178   0.005890  -0.000150
    27  H   -0.031237  -0.034422   0.591449   0.005893  -0.005173  -0.000031
    28  C   -0.004583  -0.005178   0.005893   5.157085  -0.065249   0.364612
    29  C   -0.004620   0.005890  -0.005173  -0.065249   5.157650  -0.004921
    30  H    0.003526  -0.000150  -0.000031   0.364612  -0.004921   0.601649
    31  H   -0.000002  -0.000015  -0.000193   0.370788  -0.003224  -0.030257
    32  H   -0.000140   0.004211  -0.000049   0.364622   0.005632  -0.031903
    33  H   -0.000137  -0.000049   0.004203   0.005632   0.364567  -0.000016
    34  H   -0.000001  -0.000193  -0.000015  -0.003205   0.370667  -0.000162
    35  H    0.003524  -0.000031  -0.000151  -0.004929   0.364573   0.003591
    36  H    0.000023   0.001966   0.001868   0.000255   0.000260  -0.000001
    37  C    0.000000   0.000000   0.000000   0.000000   0.000000   0.000000
    38  C    0.000000   0.000000   0.000000   0.000000   0.000000   0.000000
    39  C    0.000000   0.000000   0.000000   0.000000   0.000000   0.000000
    40  C    0.000000   0.000000   0.000000   0.000000   0.000000   0.000000
    41  H    0.000000   0.000000   0.000000   0.000000   0.000000   0.000000
    42  H    0.000000   0.000000   0.000000   0.000000   0.000000   0.000000
    43  H    0.000000   0.000000   0.000000   0.000000   0.000000   0.000000
    44  H    0.000000   0.000000   0.000000   0.000000   0.000000   0.000000
    45  H    0.000000   0.000000   0.000000   0.000000   0.000000   0.000000
    46  H    0.000000   0.000000   0.000000   0.000000   0.000000   0.000000
    47  H    0.000000   0.000000   0.000000   0.000000   0.000000   0.000000
    48  H    0.000000   0.000000   0.000000   0.000000   0.000000   0.000000
    49  N    0.000000   0.000000   0.000000   0.000000   0.000000   0.000000
              31         32         33         34         35         36
     1  C    0.000000  -0.000002  -0.000002   0.000000   0.000000  -0.007545
     2  H    0.000000   0.000000   0.000000   0.000000   0.000000   0.006721
     3  C   -0.000001   0.000004   0.000006  -0.000001   0.000001   0.005542
     4  C   -0.000055  -0.000005  -0.000006  -0.000059   0.000001   0.000196
     5  C   -0.007805  -0.001524  -0.001525  -0.007782   0.006226  -0.031987
     6  C    0.000014   0.001273   0.001233   0.000009  -0.000069   0.344096
     7  C    0.000031  -0.000016  -0.000016   0.000031   0.000000  -0.037040
     8  H    0.000000   0.000000   0.000000   0.000000   0.000000  -0.000101
     9  O    0.005830  -0.000449  -0.000452   0.005727   0.000133   0.003343
    10  C    0.000001   0.000000   0.000000   0.000001   0.000000   0.000000
    11  C   -0.000067  -0.000002  -0.000003  -0.000067  -0.000001   0.000017
    12  H    0.000000   0.000000   0.000000   0.000000   0.000000   0.000000
    13  H    0.000000   0.000000   0.000000   0.000000   0.000000   0.000000
    14  H    0.000000   0.000000   0.000000   0.000000   0.000000   0.000000
    15  C    0.000003   0.000003   0.000000  -0.000019   0.000000   0.000000
    16  C   -0.000017   0.000000   0.000003  -0.000010   0.000003   0.000000
    17  H    0.002330  -0.000004   0.000000   0.000072   0.000000   0.000000
    18  H   -0.000007   0.000000   0.000000   0.000000   0.000000   0.000000
    19  H   -0.000003   0.000000   0.000000   0.000000   0.000000   0.000000
    20  H    0.000000   0.000000   0.000000  -0.000008   0.000000   0.000000
    21  H    0.000055   0.000000  -0.000002   0.002585  -0.000008   0.000000
    22  H    0.000000   0.000000   0.000001  -0.000004   0.000000   0.000000
    23  C    0.005191  -0.004548  -0.004534   0.005189  -0.004138   0.003129
    24  C   -0.031565  -0.033265  -0.033246  -0.031461  -0.035224  -0.008619
    25  H   -0.000002  -0.000140  -0.000137  -0.000001   0.003524   0.000023
    26  H   -0.000015   0.004211  -0.000049  -0.000193  -0.000031   0.001966
    27  H   -0.000193  -0.000049   0.004203  -0.000015  -0.000151   0.001868
    28  C    0.370788   0.364622   0.005632  -0.003205  -0.004929   0.000255
    29  C   -0.003224   0.005632   0.364567   0.370667   0.364573   0.000260
    30  H   -0.030257  -0.031903  -0.000016  -0.000162   0.003591  -0.000001
    31  H    0.560010  -0.029500  -0.000009   0.003055  -0.000162  -0.000026
    32  H   -0.029500   0.592319  -0.000205  -0.000010  -0.000016  -0.000042
    33  H   -0.000009  -0.000205   0.593103  -0.029604  -0.031968  -0.000041
    34  H    0.003055  -0.000010  -0.029604   0.559571  -0.030187  -0.000025
    35  H   -0.000162  -0.000016  -0.031968  -0.030187   0.601685  -0.000002
    36  H   -0.000026  -0.000042  -0.000041  -0.000025  -0.000002   0.585431
    37  C    0.000000   0.000000   0.000000   0.000000   0.000000   0.000000
    38  C    0.000000   0.000000   0.000000   0.000000   0.000000   0.000000
    39  C    0.000000   0.000000   0.000000   0.000000   0.000000   0.000158
    40  C    0.000000   0.000000   0.000000   0.000000   0.000000  -0.000006
    41  H    0.000000   0.000000   0.000000   0.000000   0.000000   0.000000
    42  H    0.000000   0.000000   0.000000   0.000000   0.000000   0.000000
    43  H    0.000000   0.000000   0.000000   0.000000   0.000000   0.000000
    44  H    0.000000   0.000000   0.000000   0.000000   0.000000   0.000000
    45  H    0.000000   0.000000   0.000000   0.000000   0.000000  -0.000001
    46  H    0.000000   0.000000   0.000000   0.000000   0.000000   0.000006
    47  H    0.000000   0.000000   0.000000   0.000000   0.000000   0.000000
    48  H    0.000000   0.000000   0.000000   0.000000   0.000000   0.000000
    49  N    0.000000   0.000000   0.000000   0.000000   0.000000   0.000004
              37         38         39         40         41         42
     1  C    0.006259   0.006779   0.308748  -0.039686  -0.000191  -0.000187
     2  H   -0.000124  -0.000184  -0.048000   0.002385   0.000003   0.000002
     3  C   -0.000097  -0.000024  -0.009327   0.000741  -0.000019  -0.000001
     4  C   -0.000003   0.000002   0.000002  -0.000030   0.000002   0.000000
     5  C    0.000000   0.000000  -0.000324   0.000010   0.000000   0.000000
     6  C    0.000000   0.000001   0.005056  -0.000001   0.000000   0.000000
     7  C    0.000326   0.000281  -0.016307  -0.011674  -0.000021   0.000003
     8  H   -0.000130   0.000284   0.001428  -0.001753   0.000145   0.000008
     9  O    0.000000   0.000000  -0.000003   0.000000   0.000000   0.000000
    10  C    0.000000  -0.000002   0.000006  -0.000007  -0.000001   0.000000
    11  C    0.000000   0.000000   0.000003   0.000002   0.000000   0.000000
    12  H    0.000000   0.000000  -0.000001  -0.000002  -0.000001   0.000000
    13  H   -0.000003   0.000005   0.000005   0.000006   0.000023   0.000000
    14  H    0.000000   0.000000   0.000000   0.000000   0.000000   0.000000
    15  C    0.000000   0.000000   0.000000   0.000000   0.000000   0.000000
    16  C    0.000000   0.000000   0.000000   0.000000   0.000000   0.000000
    17  H    0.000000   0.000000   0.000000   0.000000   0.000000   0.000000
    18  H    0.000000   0.000000   0.000000   0.000000   0.000000   0.000000
    19  H    0.000000   0.000000   0.000000   0.000000   0.000000   0.000000
    20  H    0.000000   0.000000   0.000000   0.000000   0.000000   0.000000
    21  H    0.000000   0.000000   0.000000   0.000000   0.000000   0.000000
    22  H    0.000000   0.000000   0.000000   0.000000   0.000000   0.000000
    23  C    0.000000   0.000000   0.000000   0.000000   0.000000   0.000000
    24  C    0.000000   0.000000   0.000001   0.000000   0.000000   0.000000
    25  H    0.000000   0.000000   0.000000   0.000000   0.000000   0.000000
    26  H    0.000000   0.000000   0.000000   0.000000   0.000000   0.000000
    27  H    0.000000   0.000000   0.000000   0.000000   0.000000   0.000000
    28  C    0.000000   0.000000   0.000000   0.000000   0.000000   0.000000
    29  C    0.000000   0.000000   0.000000   0.000000   0.000000   0.000000
    30  H    0.000000   0.000000   0.000000   0.000000   0.000000   0.000000
    31  H    0.000000   0.000000   0.000000   0.000000   0.000000   0.000000
    32  H    0.000000   0.000000   0.000000   0.000000   0.000000   0.000000
    33  H    0.000000   0.000000   0.000000   0.000000   0.000000   0.000000
    34  H    0.000000   0.000000   0.000000   0.000000   0.000000   0.000000
    35  H    0.000000   0.000000   0.000000   0.000000   0.000000   0.000000
    36  H    0.000000   0.000000   0.000158  -0.000006   0.000000   0.000000
    37  C    5.147811   0.328355  -0.060076   0.317263   0.373324   0.366323
    38  C    0.328355   4.984920  -0.068378  -0.072537  -0.034360  -0.035007
    39  C   -0.060076  -0.068378   5.029363   0.324817   0.002618   0.002754
    40  C    0.317263  -0.072537   0.324817   5.178284  -0.029403  -0.032512
    41  H    0.373324  -0.034360   0.002618  -0.029403   0.595850  -0.037635
    42  H    0.366323  -0.035007   0.002754  -0.032512  -0.037635   0.611059
    43  H   -0.024543   0.371253   0.005796   0.003563  -0.008458   0.002694
    44  H   -0.053334   0.365552  -0.002599   0.000054   0.004941  -0.005350
    45  H    0.006598  -0.034379  -0.036978   0.008339  -0.000128  -0.000237
    46  H   -0.002509   0.000758   0.369488  -0.071377  -0.000050   0.001456
    47  H   -0.035276   0.005144  -0.030830   0.359593   0.003430  -0.007599
    48  H   -0.035434   0.002123  -0.038066   0.376002  -0.009425   0.004255
    49  N   -0.068049   0.272623   0.263192  -0.083328   0.003109   0.002619
              43         44         45         46         47         48
     1  C   -0.000167  -0.000540   0.003576  -0.053012   0.001057  -0.008061
     2  H    0.000002   0.000012   0.000040  -0.005734   0.000260  -0.000052
     3  C    0.000119  -0.000033   0.000395  -0.000062  -0.000038   0.001513
     4  C   -0.000003   0.000000  -0.000062   0.000000   0.000001  -0.000026
     5  C    0.000000   0.000000   0.000000  -0.000001   0.000000  -0.000007
     6  C    0.000000   0.000000  -0.000047  -0.000183   0.000005  -0.000078
     7  C   -0.000006   0.000025   0.000148   0.008990   0.000150   0.004581
     8  H   -0.000449   0.000144  -0.001461   0.000554   0.000062   0.001673
     9  O    0.000000   0.000000   0.000000   0.000000   0.000000   0.000000
    10  C    0.000012   0.000000   0.000008   0.000000   0.000000  -0.000010
    11  C    0.000000   0.000000  -0.000002   0.000000   0.000000   0.000000
    12  H    0.000005   0.000001  -0.000007   0.000000   0.000000  -0.000003
    13  H   -0.000003   0.000000   0.000000   0.000000   0.000000   0.000074
    14  H    0.000000   0.000000   0.000000   0.000000   0.000000   0.000000
    15  C    0.000000   0.000000   0.000000   0.000000   0.000000  -0.000001
    16  C    0.000000   0.000000   0.000000   0.000000   0.000000   0.000000
    17  H    0.000000   0.000000   0.000000   0.000000   0.000000   0.000000
    18  H    0.000000   0.000000   0.000000   0.000000   0.000000   0.000000
    19  H    0.000000   0.000000   0.000000   0.000000   0.000000   0.000002
    20  H    0.000000   0.000000   0.000000   0.000000   0.000000   0.000000
    21  H    0.000000   0.000000   0.000000   0.000000   0.000000   0.000000
    22  H    0.000000   0.000000   0.000000   0.000000   0.000000   0.000000
    23  C    0.000000   0.000000   0.000000   0.000000   0.000000   0.000000
    24  C    0.000000   0.000000   0.000000   0.000000   0.000000   0.000000
    25  H    0.000000   0.000000   0.000000   0.000000   0.000000   0.000000
    26  H    0.000000   0.000000   0.000000   0.000000   0.000000   0.000000
    27  H    0.000000   0.000000   0.000000   0.000000   0.000000   0.000000
    28  C    0.000000   0.000000   0.000000   0.000000   0.000000   0.000000
    29  C    0.000000   0.000000   0.000000   0.000000   0.000000   0.000000
    30  H    0.000000   0.000000   0.000000   0.000000   0.000000   0.000000
    31  H    0.000000   0.000000   0.000000   0.000000   0.000000   0.000000
    32  H    0.000000   0.000000   0.000000   0.000000   0.000000   0.000000
    33  H    0.000000   0.000000   0.000000   0.000000   0.000000   0.000000
    34  H    0.000000   0.000000   0.000000   0.000000   0.000000   0.000000
    35  H    0.000000   0.000000   0.000000   0.000000   0.000000   0.000000
    36  H    0.000000   0.000000  -0.000001   0.000006   0.000000   0.000000
    37  C   -0.024543  -0.053334   0.006598  -0.002509  -0.035276  -0.035434
    38  C    0.371253   0.365552  -0.034379   0.000758   0.005144   0.002123
    39  C    0.005796  -0.002599  -0.036978   0.369488  -0.030830  -0.038066
    40  C    0.003563   0.000054   0.008339  -0.071377   0.359593   0.376002
    41  H   -0.008458   0.004941  -0.000128  -0.000050   0.003430  -0.009425
    42  H    0.002694  -0.005350  -0.000237   0.001456  -0.007599   0.004255
    43  H    0.615031  -0.055559   0.000872  -0.000523  -0.000166  -0.000078
    44  H   -0.055559   0.697020  -0.004360   0.009405   0.000379  -0.000038
    45  H    0.000872  -0.004360   0.480902  -0.004458  -0.000258  -0.000186
    46  H   -0.000523   0.009405  -0.004458   0.725248  -0.002598   0.006024
    47  H   -0.000166   0.000379  -0.000258  -0.002598   0.614744  -0.035189
    48  H   -0.000078  -0.000038  -0.000186   0.006024  -0.035189   0.586079
    49  N   -0.041564  -0.063420   0.307111  -0.075698   0.004747  -0.000027
              49
     1  C   -0.060413
     2  H    0.003341
     3  C   -0.020140
     4  C    0.000152
     5  C   -0.000011
     6  C    0.000205
     7  C   -0.000139
     8  H    0.031453
     9  O   -0.000002
    10  C   -0.000235
    11  C    0.000036
    12  H    0.000332
    13  H    0.000011
    14  H   -0.000001
    15  C    0.000000
    16  C    0.000000
    17  H    0.000000
    18  H    0.000000
    19  H    0.000000
    20  H    0.000000
    21  H    0.000000
    22  H    0.000000
    23  C    0.000000
    24  C    0.000000
    25  H    0.000000
    26  H    0.000000
    27  H    0.000000
    28  C    0.000000
    29  C    0.000000
    30  H    0.000000
    31  H    0.000000
    32  H    0.000000
    33  H    0.000000
    34  H    0.000000
    35  H    0.000000
    36  H    0.000004
    37  C   -0.068049
    38  C    0.272623
    39  C    0.263192
    40  C   -0.083328
    41  H    0.003109
    42  H    0.002619
    43  H   -0.041564
    44  H   -0.063420
    45  H    0.307111
    46  H   -0.075698
    47  H    0.004747
    48  H   -0.000027
    49  N    7.101808
 Mulliken charges:
               1
     1  C   -0.229968
     2  H    0.097377
     3  C   -0.176876
     4  C    0.333525
     5  C    0.342196
     6  C   -0.194233
     7  C    0.127810
     8  H    0.181265
     9  O   -0.613241
    10  C   -0.396557
    11  C   -0.034903
    12  H    0.141636
    13  H    0.138289
    14  H    0.127424
    15  C   -0.393553
    16  C   -0.394051
    17  H    0.153375
    18  H    0.126479
    19  H    0.133063
    20  H    0.126658
    21  H    0.153386
    22  H    0.132818
    23  C   -0.399088
    24  C   -0.035640
    25  H    0.131760
    26  H    0.137124
    27  H    0.136856
    28  C   -0.393802
    29  C   -0.394203
    30  H    0.127148
    31  H    0.155598
    32  H    0.133613
    33  H    0.133066
    34  H    0.155906
    35  H    0.127150
    36  H    0.132424
    37  C   -0.266681
    38  C   -0.093209
    39  C   -0.002545
    40  C   -0.228743
    41  H    0.136246
    42  H    0.127356
    43  H    0.132174
    44  H    0.107702
    45  H    0.274574
    46  H    0.094275
    47  H    0.122382
    48  H    0.144355
    49  N   -0.577715
 Sum of Mulliken charges =   0.00000
 Mulliken charges with hydrogens summed into heavy atoms:
               1
     1  C   -0.132591
     3  C    0.004390
     4  C    0.333525
     5  C    0.342196
     6  C   -0.061810
     7  C    0.127810
     9  O   -0.613241
    10  C    0.010791
    11  C   -0.034903
    15  C    0.019363
    16  C    0.018811
    23  C    0.006653
    24  C   -0.035640
    28  C    0.022558
    29  C    0.021918
    37  C   -0.003079
    38  C    0.146667
    39  C    0.091730
    40  C    0.037994
    49  N   -0.303141
 Electronic spatial extent (au):  <R**2>=           7210.1571
 Charge=              0.0000 electrons
 Dipole moment (field-independent basis, Debye):
    X=             -0.1611    Y=             -0.1528    Z=             -0.3825  Tot=              0.4422
 Quadrupole moment (field-independent basis, Debye-Ang):
   XX=           -116.7315   YY=           -119.7739   ZZ=           -124.5807
   XY=             -1.6274   XZ=              1.5650   YZ=              0.4510
 Traceless Quadrupole moment (field-independent basis, Debye-Ang):
   XX=              3.6305   YY=              0.5882   ZZ=             -4.2186
   XY=             -1.6274   XZ=              1.5650   YZ=              0.4510
 Octapole moment (field-independent basis, Debye-Ang**2):
  XXX=            -10.4917  YYY=              7.1221  ZZZ=             -7.9006  XYY=              3.4200
  XXY=            -12.0763  XXZ=             -5.5670  XZZ=             -8.2731  YZZ=              1.7475
  YYZ=             -0.0398  XYZ=             -0.7405
 Hexadecapole moment (field-independent basis, Debye-Ang**3):
 XXXX=          -6257.7425 YYYY=          -2735.6608 ZZZZ=           -663.4624 XXXY=            -18.6892
 XXXZ=             28.1047 YYYX=              9.4804 YYYZ=              0.5728 ZZZX=             27.8372
 ZZZY=              1.6936 XXYY=          -1524.6889 XXZZ=          -1177.3583 YYZZ=           -587.3177
 XXYZ=             -0.4408 YYXZ=              0.3233 ZZXY=             -0.6787
 N-N= 1.635778110564D+03 E-N=-5.205546447259D+03  KE= 8.283084192068D+02
 1|1|UNPC-NAAC4|SP|RB3LYP TD-FC|6-31G|C18H29N1O1|123|05-Mar-2025|0||# t
 d=(50-50,nstates=3) b3lyp/6-31g geom=connectivity||Title Card Required
 ||0,1|C,0,-1.659813,-1.952173,-0.223715|H,0,-1.466908,-3.023742,-0.246
 74|C,0,-0.628066,0.333688,-0.110486|C,0,0.485384,1.089558,-0.019749|C,
 0,1.882197,-0.90523,-0.02927|C,0,0.782806,-1.680476,-0.125083|C,0,-0.5
 74657,-1.129796,-0.157402|H,0,-1.601133,0.79763,-0.184883|O,0,1.763937
 ,0.495763,0.036879|C,0,-0.804667,3.257516,-0.025623|C,0,0.593774,2.605
 817,0.031986|H,0,-1.331789,2.996878,-0.949844|H,0,-1.425943,2.948613,0
 .822124|H,0,-0.700106,4.347609,0.010093|C,0,1.296325,3.023787,1.352863
 |C,0,1.436399,3.100685,-1.175588|H,0,2.290954,2.575031,1.425137|H,0,1.
 402318,4.114518,1.390981|H,0,0.709958,2.70476,2.222243|H,0,1.541689,4.
 191427,-1.135878|H,0,2.434841,2.654596,-1.164113|H,0,0.951394,2.836454
 ,-2.122384|C,0,3.47256,-2.866986,-0.049972|C,0,3.341666,-1.330704,0.02
 8627|H,0,4.531235,-3.145472,-0.006226|H,0,2.961007,-3.357121,0.786035|
 H,0,3.059834,-3.257819,-0.986827|C,0,3.964424,-0.834585,1.362516|C,0,4
 .107232,-0.69306,-1.162965|H,0,5.025219,-1.108814,1.404462|H,0,3.88216
 7,0.252272,1.450275|H,0,3.456992,-1.289102,2.221191|H,0,3.701985,-1.04
 4794,-2.118707|H,0,4.029536,0.397314,-1.136908|H,0,5.16757,-0.968402,-
 1.116454|H,0,0.897504,-2.756043,-0.172282|C,0,-4.965597,-0.32324,0.850
 468|C,0,-4.875841,-0.040754,-0.678045|C,0,-3.119445,-1.579644,-0.20895
 |C,0,-3.711262,-1.186997,1.179658|H,0,-4.954964,0.609104,1.423796|H,0,
 -5.897351,-0.844481,1.093347|H,0,-5.090201,1.002428,-0.931286|H,0,-5.6
 06988,-0.673492,-1.216066|H,0,-3.260484,-0.448599,-1.995597|H,0,-3.687
 4,-2.464673,-0.564592|H,0,-3.947844,-2.072542,1.777611|H,0,-2.967003,-
 0.600415,1.72649|N,0,-3.479728,-0.380523,-1.005092||Version=EM64W-G09R
 evD.01|State=1-A|HF=-833.1103692|RMSD=8.882e-009|PG=C01 [X(C18H29N1O1)
 ]||@


 TO DRY ONE'S EYES AND LAUGH AT A FALL
 AND BAFFLED, GET UP AND BEGIN AGAIN.
           R. BROWNING
 Job cpu time:       0 days  0 hours 31 minutes 48.0 seconds.
 File lengths (MBytes):  RWF=    202 Int=      0 D2E=      0 Chk=     17 Scr=      1
 Normal termination of Gaussian 09 at Wed Mar 05 11:27:52 2025.
